 Entering Gaussian System, Link 0=g09
 Input=/rds/general/user/jb6518/home/emimNO3_s1.com
 Output=/rds/general/user/jb6518/home/emimNO3_s1.log
 Initial command:
 /apps/gaussian/g09_d01/g09/l1.exe /rds/general/ephemeral/user/jb6518/ephemeral/Gau-4018058.inp -scrdir=/rds/general/ephemeral/user/jb6518/ephemeral/
 Entering Link 1 = /apps/gaussian/g09_d01/g09/l1.exe PID=   4018059.
  
 Copyright (c) 1988,1990,1992,1993,1995,1998,2003,2009,2013,
            Gaussian, Inc.  All Rights Reserved.
  
 This is part of the Gaussian(R) 09 program.  It is based on
 the Gaussian(R) 03 system (copyright 2003, Gaussian, Inc.),
 the Gaussian(R) 98 system (copyright 1998, Gaussian, Inc.),
 the Gaussian(R) 94 system (copyright 1995, Gaussian, Inc.),
 the Gaussian 92(TM) system (copyright 1992, Gaussian, Inc.),
 the Gaussian 90(TM) system (copyright 1990, Gaussian, Inc.),
 the Gaussian 88(TM) system (copyright 1988, Gaussian, Inc.),
 the Gaussian 86(TM) system (copyright 1986, Carnegie Mellon
 University), and the Gaussian 82(TM) system (copyright 1983,
 Carnegie Mellon University). Gaussian is a federally registered
 trademark of Gaussian, Inc.
  
 This software contains proprietary and confidential information,
 including trade secrets, belonging to Gaussian, Inc.
  
 This software is provided under written license and may be
 used, copied, transmitted, or stored only in accord with that
 written license.
  
 The following legend is applicable only to US Government
 contracts under FAR:
  
                    RESTRICTED RIGHTS LEGEND
  
 Use, reproduction and disclosure by the US Government is
 subject to restrictions as set forth in subparagraphs (a)
 and (c) of the Commercial Computer Software - Restricted
 Rights clause in FAR 52.227-19.
  
 Gaussian, Inc.
 340 Quinnipiac St., Bldg. 40, Wallingford CT 06492
  
  
 ---------------------------------------------------------------
 Warning -- This program may not be used in any manner that
 competes with the business of Gaussian, Inc. or will provide
 assistance to any competitor of Gaussian, Inc.  The licensee
 of this program is prohibited from giving any competitor of
 Gaussian, Inc. access to this program.  By using this program,
 the user acknowledges that Gaussian, Inc. is engaged in the
 business of creating and licensing software in the field of
 computational chemistry and represents and warrants to the
 licensee that it is not a competitor of Gaussian, Inc. and that
 it will not use this program in any manner prohibited above.
 ---------------------------------------------------------------
  

 Cite this work as:
 Gaussian 09, Revision D.01,
 M. J. Frisch, G. W. Trucks, H. B. Schlegel, G. E. Scuseria, 
 M. A. Robb, J. R. Cheeseman, G. Scalmani, V. Barone, B. Mennucci, 
 G. A. Petersson, H. Nakatsuji, M. Caricato, X. Li, H. P. Hratchian, 
 A. F. Izmaylov, J. Bloino, G. Zheng, J. L. Sonnenberg, M. Hada, 
 M. Ehara, K. Toyota, R. Fukuda, J. Hasegawa, M. Ishida, T. Nakajima, 
 Y. Honda, O. Kitao, H. Nakai, T. Vreven, J. A. Montgomery, Jr., 
 J. E. Peralta, F. Ogliaro, M. Bearpark, J. J. Heyd, E. Brothers, 
 K. N. Kudin, V. N. Staroverov, T. Keith, R. Kobayashi, J. Normand, 
 K. Raghavachari, A. Rendell, J. C. Burant, S. S. Iyengar, J. Tomasi, 
 M. Cossi, N. Rega, J. M. Millam, M. Klene, J. E. Knox, J. B. Cross, 
 V. Bakken, C. Adamo, J. Jaramillo, R. Gomperts, R. E. Stratmann, 
 O. Yazyev, A. J. Austin, R. Cammi, C. Pomelli, J. W. Ochterski, 
 R. L. Martin, K. Morokuma, V. G. Zakrzewski, G. A. Voth, 
 P. Salvador, J. J. Dannenberg, S. Dapprich, A. D. Daniels, 
 O. Farkas, J. B. Foresman, J. V. Ortiz, J. Cioslowski, 
 and D. J. Fox, Gaussian, Inc., Wallingford CT, 2013.
 
 ******************************************
 Gaussian 09:  ES64L-G09RevD.01 24-Apr-2013
                17-Sep-2020 
 ******************************************
 %nprocs=20
 Will use up to   20 processors via shared memory.
 %mem=58000MB
 %chk=emimNO3_s1.chk
 ----------------------------------------------------------------------
 # POpt=z-matrix B3LYP/6-311+g(d,p) empiricaldispersion=gd3bj int=ultra
 fine scf=conver=9
 ----------------------------------------------------------------------
 1/10=7,14=-1,18=40,26=4,38=1/1,3;
 2/12=2,17=6,18=5,29=3,40=1/2;
 3/5=4,6=6,7=111,11=2,16=1,25=1,30=1,71=1,74=-5,75=-5,124=41/1,2,3;
 4//1;
 5/5=2,6=9,38=5/2;
 6/7=2,8=2,9=2,10=2,28=1/1;
 7/29=1/1,2,3,16;
 1/10=7,14=-1,18=40,26=4/3(2);
 2/29=3/2;
 99//99;
 2/29=3/2;
 3/5=4,6=6,7=111,11=2,16=1,25=1,30=1,71=1,74=-5,75=-5,124=41/1,2,3;
 4/5=5,16=3,69=1/1;
 5/5=2,6=9,38=5/2;
 7//1,2,3,16;
 1/14=-1,18=40,26=4/3(-5);
 2/29=3/2;
 6/7=2,8=2,9=2,10=2,19=2,28=1/1;
 99/9=1/99;
 -------------------
 Title card required
 -------------------
 Symbolic Z-matrix:
 Charge =  0 Multiplicity = 1
 X
 X                    1    R1
 X                    1    R2       2    A1
 X                    1    R3       2    A2       3    D1       0
 C                    2    R4       1    A3       3    D2       0
 N                    2    R5       1    A4       3    D3       0
 C                    2    R6       1    A5       3    D4       0
 N                    2    R7       1    A6       3    D5       0
 C                    2    R8       1    A7       3    D6       0
 H                    7    R9       6    A8       5    D7       0
 H                    5    R10      9    A9       8    D8       0
 H                    9    R11      5    A10      6    D9       0
 N                    2    R12      3    A11      4    D10      0
 O                    13   R13      2    A12      3    D11      0
 O                    13   R14      2    A13      3    D12      0
 O                    13   R15      2    A14      3    D13      0
 C                    8    R16      7    A15      6    D14      0
 H                    17   R17      8    A16      7    D15      0
 H                    17   R18      8    A17      7    D16      0
 H                    17   R19      8    A18      7    D17      0
 C                    6    R20      7    A19      8    D18      0
 C                    21   R21      6    A20      7    D19      0
 H                    21   R22      6    A21      7    D20      0
 H                    21   R23      6    A22      7    D21      0
 H                    22   R24      21   A23      6    D22      0
 H                    22   R25      21   A24      6    D23      0
 H                    22   R26      21   A25      6    D24      0
       Variables:
  R4                    1.3                      
  R5                    1.3                      
  R7                    1.3                      
  R8                    1.3                      
  R9                    1.08                     
  R10                   1.08                     
  R11                   1.08                     
  R12                   4.                       
  R13                   1.27                     
  R14                   1.27                     
  R15                   1.27                     
  R16                   1.46                     
  R17                   1.08                     
  R18                   1.08                     
  R19                   1.08                     
  R20                   1.46                     
  R21                   1.52                     
  R22                   1.08                     
  R23                   1.08                     
  R24                   1.08                     
  R25                   1.08                     
  R26                   1.08                     
  A3                   90.                       
  A4                   90.                       
  A5                   90.                       
  A6                   90.                       
  A7                   90.                       
  A8                  125.626                    
  A9                  130.767                    
  A10                 130.767                    
  A12                  90.                       
  A13                  90.                       
  A14                  90.                       
  A15                 125.897                    
  A16                 109.418                    
  A17                 108.924                    
  A18                 109.344                    
  A19                 125.897                    
  A20                 111.91                     
  A21                 106.707                    
  A22                 106.793                    
  A23                 109.158                    
  A24                 111.494                    
  A25                 111.193                    
  D2                   36.                       
  D3                  108.                       
  D4                  180.                       
  D5                  252.                       
  D6                  324.                       
  D7                  180.                       
  D8                 -180.                       
  D9                 -180.                       
  D10                 -54.736                    
  D11                   0.                       
  D12                 120.                       
  D13                -120.                       
  D14                -180.                       
  D15                 118.274                    
  D16                  -1.409                    
  D17                -121.009                    
  D18                -180.                       
  D19                  77.2                      
  D20                 -19.6                      
  D21                -134.481                    
  D22                -180.                       
  D23                  60.938                    
  D24                 -60.542                    
       Constants:
  A11                  45.                       
  R1                    4.                       
  R2                    4.                       
  R3                    4.                       
  R6                    1.3                      
  A1                   90.                       
  A2                   90.                       
  D1                   90.                       
 

 GradGradGradGradGradGradGradGradGradGradGradGradGradGradGradGradGradGrad
 Berny optimization.
 Initialization pass.
                       ----------------------------
                       !    Initial Parameters    !
                       ! (Angstroms and Degrees)  !
 ----------------------                            ----------------------
 !      Name          Value   Derivative information (Atomic Units)     !
 ------------------------------------------------------------------------
 !       R4          1.3      estimate D2E/DX2                          !
 !       R5          1.3      estimate D2E/DX2                          !
 !       R7          1.3      estimate D2E/DX2                          !
 !       R8          1.3      estimate D2E/DX2                          !
 !       R9          1.08     estimate D2E/DX2                          !
 !       R10         1.08     estimate D2E/DX2                          !
 !       R11         1.08     estimate D2E/DX2                          !
 !       R12         4.0      estimate D2E/DX2                          !
 !       R13         1.27     estimate D2E/DX2                          !
 !       R14         1.27     estimate D2E/DX2                          !
 !       R15         1.27     estimate D2E/DX2                          !
 !       R16         1.46     estimate D2E/DX2                          !
 !       R17         1.08     estimate D2E/DX2                          !
 !       R18         1.08     estimate D2E/DX2                          !
 !       R19         1.08     estimate D2E/DX2                          !
 !       R20         1.46     estimate D2E/DX2                          !
 !       R21         1.52     estimate D2E/DX2                          !
 !       R22         1.08     estimate D2E/DX2                          !
 !       R23         1.08     estimate D2E/DX2                          !
 !       R24         1.08     estimate D2E/DX2                          !
 !       R25         1.08     estimate D2E/DX2                          !
 !       R26         1.08     estimate D2E/DX2                          !
 !       A3         90.0      estimate D2E/DX2                          !
 !       A4         90.0      estimate D2E/DX2                          !
 !       A5         90.0      estimate D2E/DX2                          !
 !       A6         90.0      estimate D2E/DX2                          !
 !       A7         90.0      estimate D2E/DX2                          !
 !       A8        125.626    estimate D2E/DX2                          !
 !       A9        130.767    estimate D2E/DX2                          !
 !       A10       130.767    estimate D2E/DX2                          !
 !       A12        90.0      estimate D2E/DX2                          !
 !       A13        90.0      estimate D2E/DX2                          !
 !       A14        90.0      estimate D2E/DX2                          !
 !       A15       125.897    estimate D2E/DX2                          !
 !       A16       109.418    estimate D2E/DX2                          !
 !       A17       108.924    estimate D2E/DX2                          !
 !       A18       109.344    estimate D2E/DX2                          !
 !       A19       125.897    estimate D2E/DX2                          !
 !       A20       111.91     estimate D2E/DX2                          !
 !       A21       106.707    estimate D2E/DX2                          !
 !       A22       106.793    estimate D2E/DX2                          !
 !       A23       109.158    estimate D2E/DX2                          !
 !       A24       111.494    estimate D2E/DX2                          !
 !       A25       111.193    estimate D2E/DX2                          !
 !       D2         36.0      estimate D2E/DX2                          !
 !       D3        108.0      estimate D2E/DX2                          !
 !       D4        180.0      estimate D2E/DX2                          !
 !       D5        252.0      estimate D2E/DX2                          !
 !       D6        324.0      estimate D2E/DX2                          !
 !       D7        180.0      estimate D2E/DX2                          !
 !       D8       -180.0      estimate D2E/DX2                          !
 !       D9       -180.0      estimate D2E/DX2                          !
 !       D10       -54.736    estimate D2E/DX2                          !
 !       D11         0.0      estimate D2E/DX2                          !
 !       D12       120.0      estimate D2E/DX2                          !
 !       D13      -120.0      estimate D2E/DX2                          !
 !       D14      -180.0      estimate D2E/DX2                          !
 !       D15       118.274    estimate D2E/DX2                          !
 !       D16        -1.409    estimate D2E/DX2                          !
 !       D17      -121.009    estimate D2E/DX2                          !
 !       D18      -180.0      estimate D2E/DX2                          !
 !       D19        77.2      estimate D2E/DX2                          !
 !       D20       -19.6      estimate D2E/DX2                          !
 !       D21      -134.481    estimate D2E/DX2                          !
 !       D22      -180.0      estimate D2E/DX2                          !
 !       D23        60.938    estimate D2E/DX2                          !
 !       D24       -60.542    estimate D2E/DX2                          !
 !       A11        45.0      Frozen                                    !
 !       R1          4.0      Frozen                                    !
 !       R2          4.0      Frozen                                    !
 !       R3          4.0      Frozen                                    !
 !       R6          1.3      Frozen                                    !
 !       A1         90.0      Frozen                                    !
 !       A2         90.0      Frozen                                    !
 !       D1         90.0      Frozen                                    !
 ------------------------------------------------------------------------
 Trust Radius=3.00D-01 FncErr=1.00D-07 GrdErr=1.00D-06
 Number of steps in this run=     85 maximum allowed number of steps=    150.
 GradGradGradGradGradGradGradGradGradGradGradGradGradGradGradGradGradGrad

 ---------------------------------------------------------------------------------------------------
                            Z-MATRIX (ANGSTROMS AND DEGREES)
   CD    Cent   Atom    N1       Length/X        N2       Alpha/Y        N3        Beta/Z          J
 ---------------------------------------------------------------------------------------------------
      1         X 
      2         X        1   4.000000(     1)
      3         X        1   4.000000(     2)      2   90.000(    27)
      4         X        1   4.000000(     3)      2   90.000(    28)      3   90.000(    52)      0
      5      1  C        2   1.300000(     4)      1   90.000(    29)      3   36.000(    53)      0
      6      2  N        2   1.300000(     5)      1   90.000(    30)      3  108.000(    54)      0
      7      3  C        2   1.300000(     6)      1   90.000(    31)      3  180.000(    55)      0
      8      4  N        2   1.300000(     7)      1   90.000(    32)      3  252.000(    56)      0
      9      5  C        2   1.300000(     8)      1   90.000(    33)      3  324.000(    57)      0
     10      6  H        7   1.080000(     9)      6  125.626(    34)      5  180.000(    58)      0
     11      7  H        5   1.080000(    10)      9  130.767(    35)      8 -180.000(    59)      0
     12      8  H        9   1.080000(    11)      5  130.767(    36)      6 -180.000(    60)      0
     13      9  N        2   4.000000(    12)      3   45.000(    37)      4  -54.736(    61)      0
     14     10  O       13   1.270000(    13)      2   90.000(    38)      3    0.000(    62)      0
     15     11  O       13   1.270000(    14)      2   90.000(    39)      3  120.000(    63)      0
     16     12  O       13   1.270000(    15)      2   90.000(    40)      3 -120.000(    64)      0
     17     13  C        8   1.460000(    16)      7  125.897(    41)      6 -180.000(    65)      0
     18     14  H       17   1.080000(    17)      8  109.418(    42)      7  118.274(    66)      0
     19     15  H       17   1.080000(    18)      8  108.924(    43)      7   -1.409(    67)      0
     20     16  H       17   1.080000(    19)      8  109.344(    44)      7 -121.009(    68)      0
     21     17  C        6   1.460000(    20)      7  125.897(    45)      8 -180.000(    69)      0
     22     18  C       21   1.520000(    21)      6  111.910(    46)      7   77.200(    70)      0
     23     19  H       21   1.080000(    22)      6  106.707(    47)      7  -19.600(    71)      0
     24     20  H       21   1.080000(    23)      6  106.793(    48)      7 -134.481(    72)      0
     25     21  H       22   1.080000(    24)     21  109.158(    49)      6 -180.000(    73)      0
     26     22  H       22   1.080000(    25)     21  111.494(    50)      6   60.938(    74)      0
     27     23  H       22   1.080000(    26)     21  111.193(    51)      6  -60.542(    75)      0
 ---------------------------------------------------------------------------------------------------
                         Z-Matrix orientation:                         
 ---------------------------------------------------------------------
 Center     Atomic      Atomic             Coordinates (Angstroms)
 Number     Number       Type             X           Y           Z
 ---------------------------------------------------------------------
      1         -1           0        0.000000    0.000000    0.000000
      2         -1           0        0.000000    0.000000    4.000000
      3         -1           0        4.000000    0.000000    0.000000
      4         -1           0        0.000000   -4.000000    0.000000
      5          6           0        1.051722    0.764121    4.000000
      6          7           0       -0.401722    1.236373    4.000000
      7          6           0       -1.300000    0.000000    4.000000
      8          7           0       -0.401722   -1.236373    4.000000
      9          6           0        1.051722   -0.764121    4.000000
     10          1           0       -2.379977    0.007050    4.000000
     11          1           0        1.869683    1.469344    4.000000
     12          1           0        1.869683   -1.469344    4.000000
     13          7           0        0.000000    0.000019    0.000000
     14          8           0        1.270000    0.000013    0.000000
     15          8           0       -0.635005   -1.099830   -0.000005
     16          8           0       -0.634995    1.099875    0.000005
     17          6           0       -0.855382   -2.624103    4.000000
     18          1           0       -0.508349   -3.115304    3.102955
     19          1           0       -1.934978   -2.639674    4.025121
     20          1           0       -0.467551   -3.127257    4.873397
     21          6           0       -0.855382    2.624103    4.000000
     22          6           0       -1.328587    3.066134    5.375167
     23          1           0       -1.878092    2.616415    3.653005
     24          1           0       -0.263743    3.145793    3.262299
     25          1           0       -1.652865    4.095059    5.324602
     26          1           0       -0.535274    3.004366    6.105400
     27          1           0       -2.158953    2.464592    5.714343
 ---------------------------------------------------------------------
                    Distance matrix (angstroms):
                    1          2          3          4          5
     1  X    0.000000
     2  X    4.000000   0.000000
     3  X    4.000000   5.656854   0.000000
     4  X    4.000000   5.656854   5.656854   0.000000
     5  C    4.205948   1.300000   5.027546   6.308959   0.000000
     6  N    4.205948   1.300000   6.074848   6.601590   1.528242
     7  C    4.205948   1.300000   6.640030   5.804309   2.472747
     8  N    4.205948   1.300000   6.074848   4.878423   2.472747
     9  C    4.205948   1.300000   5.027546   5.251384   1.528242
    10  H    4.654497   2.379987   7.530216   6.141721   3.514216
    11  H    4.653460   2.377959   4.764160   7.029185   1.080000
    12  H    4.653460   2.377959   4.764160   5.089198   2.378534
    13  N    0.000000   4.000000   4.000000   4.000019   4.205945
    14  O    1.270000   4.196773   2.730000   4.196785   4.078174
    15  O    1.269983   4.196773   4.763707   2.968875   4.724342
    16  O    1.270017   4.196773   4.763707   5.139255   4.354044
    17  C    4.859794   2.759999   6.816205   4.315643   3.888072
    18  H    4.426270   3.281497   6.297512   3.266410   4.276499
    19  H    5.187833   3.273018   7.641560   4.668643   4.528446
    20  H    5.809332   3.280421   7.313600   4.972955   4.267767
    21  C    4.859794   2.759999   6.816205   7.785269   2.663941
    22  C    6.329198   3.613503   8.166238   8.977072   3.585557
    23  H    4.870042   3.239331   7.398787   7.787723   3.483563
    24  H    4.539622   3.241878   6.222388   7.859676   2.819044
    25  H    6.917576   4.610428   8.779281   9.829208   4.490491
    26  H    6.825587   3.707484   8.177459   9.307178   3.459763
    27  H    6.587033   3.697872   8.755605   8.894141   4.017338
                    6          7          8          9         10
     6  N    0.000000
     7  C    1.528242   0.000000
     8  N    2.472747   1.528242   0.000000
     9  C    2.472747   2.472747   1.528242   0.000000
    10  H    2.329105   1.080000   2.336577   3.517281   0.000000
    11  H    2.283321   3.493689   3.532731   2.378534   4.494209
    12  H    3.532731   3.493689   2.283321   1.080000   4.498816
    13  N    4.205943   4.205948   4.205954   4.205952   4.654497
    14  O    4.508131   4.754461   4.508138   4.078179   5.415014
    15  O    4.638136   4.201415   4.009128   4.354055   4.502238
    16  O    4.009115   4.201418   4.638149   4.724347   4.498798
    17  C    3.887040   2.661503   1.460000   2.663941   3.040946
    18  H    4.444452   3.337142   2.084811   2.960840   3.749236
    19  H    4.168362   2.715088   2.078643   3.526855   2.683989
    20  H    4.450666   3.351944   2.083890   2.942010   3.774132
    21  C    1.460000   2.661503   3.887040   3.888072   3.028755
    22  C    2.469451   3.360518   4.611045   4.714638   3.514897
    23  H    2.050509   2.701893   4.140538   4.486897   2.679754
    24  H    2.051614   3.393235   4.445967   4.190713   3.856729
    25  H    3.389987   4.318402   5.634190   5.716729   4.358335
    26  H    2.752515   3.747496   4.736498   4.599213   4.101163
    27  H    2.745059   3.122657   4.441168   4.865387   3.004553
                   11         12         13         14         15
    11  H    0.000000
    12  H    2.938688   0.000000
    13  N    4.653454   4.653466   0.000000
    14  O    4.303319   4.303328   1.270000   0.000000
    15  O    5.373468   4.733925   1.270000   2.199705   0.000000
    16  O    4.733907   5.373477   1.270000   2.199705   2.199705
    17  C    4.917549   2.959637   4.859804   5.234810   4.286259
    18  H    5.242015   3.028021   4.426284   4.743001   3.702234
    19  H    5.600009   3.980672   5.187843   5.782856   4.501410
    20  H    5.230127   2.995690   5.809342   6.045569   5.280961
    21  C    2.959637   4.917549   4.859783   5.234797   5.469578
    22  C    3.830112   5.717568   6.329189   6.711645   6.835846
    23  H    3.934717   5.555147   4.870031   5.486392   5.357260
    24  H    2.811794   5.137625   4.539609   4.784443   5.367101
    25  H    4.588823   6.717551   6.917565   7.325567   7.508286
    26  H    3.545817   5.498237   6.825578   7.039961   7.357332
    27  H    4.489922   5.885977   6.587026   7.105321   6.905164
                   16         17         18         19         20
    16  O    0.000000
    17  C    5.469601   0.000000
    18  H    5.235653   1.080000   0.000000
    19  H    5.645860   1.080000   1.764053   0.000000
    20  H    6.453420   1.080000   1.770952   1.763704   0.000000
    21  C    4.286234   5.248205   5.819442   5.373407   5.830212
    22  C    5.765381   5.873142   6.636709   5.894622   6.273057
    23  H    4.146034   5.350642   5.918729   5.269552   6.038936
    24  H    3.868614   5.846874   6.267898   6.070135   6.479840
    25  H    6.193426   6.894758   7.631184   6.864755   7.332830
    26  H    6.396317   6.017876   6.816579   6.175914   6.254535
    27  H    6.069478   5.525674   6.378015   5.381186   5.902271
                   21         22         23         24         25
    21  C    0.000000
    22  C    1.520000   0.000000
    23  H    1.080000   1.862806   0.000000
    24  H    1.080000   2.367372   1.743277   0.000000
    25  H    2.134072   1.080000   2.243067   2.661552   0.000000
    26  H    2.163279   1.080000   2.822748   2.859537   1.745928
    27  H    2.159563   1.080000   2.085916   3.173070   1.751127
                   26         27
    26  H    0.000000
    27  H    1.755168   0.000000
 Stoichiometry    C6H11N3O3
 Framework group  C1[X(C6H11N3O3)]
 Deg. of freedom    63
 Full point group                 C1      NOp   1
 Largest Abelian subgroup         C1      NOp   1
 Largest concise Abelian subgroup C1      NOp   1
                         Standard orientation:                         
 ---------------------------------------------------------------------
 Center     Atomic      Atomic             Coordinates (Angstroms)
 Number     Number       Type             X           Y           Z
 ---------------------------------------------------------------------
      1          6           0        1.066903    0.101977    1.543075
      2          7           0        1.500202   -0.378519    0.158554
      3          6           0        1.150513    0.713931   -0.851293
      4          7           0        0.501095    1.869599   -0.090893
      5          6           0        0.449420    1.491391    1.388908
      6          1           0        1.333541    0.669520   -1.914744
      7          1           0        1.215381   -0.510400    2.420200
      8          1           0        0.028011    2.161333    2.123750
      9          7           0       -2.663946   -0.900186   -0.120179
     10          8           0       -2.875830   -0.855491    1.131224
     11          8           0       -3.002400    0.077405   -0.856837
     12          8           0       -2.113607   -1.922471   -0.634922
     13          6           0        0.016073    3.115302   -0.677902
     14          1           0       -1.047091    3.201854   -0.508812
     15          1           0        0.212491    3.101893   -1.739806
     16          1           0        0.533600    3.948821   -0.226447
     17          6           0        2.136597   -1.656149   -0.148471
     18          6           0        3.630965   -1.504035   -0.381121
     19          1           0        1.992031   -1.829136   -1.204679
     20          1           0        1.585194   -2.415746    0.385726
     21          1           0        4.055323   -2.471885   -0.603804
     22          1           0        4.130422   -1.116945    0.494724
     23          1           0        3.831501   -0.845612   -1.213385
 ---------------------------------------------------------------------
 Rotational constants (GHZ):      0.9573039      0.5521107      0.4259342
 Standard basis: 6-311+G(d,p) (5D, 7F)
 There are   342 symmetry adapted cartesian basis functions of A   symmetry.
 There are   330 symmetry adapted basis functions of A   symmetry.
   330 basis functions,   520 primitive gaussians,   342 cartesian basis functions
    46 alpha electrons       46 beta electrons
       nuclear repulsion energy       686.6700772619 Hartrees.
 NAtoms=   23 NActive=   23 NUniq=   23 SFac= 1.00D+00 NAtFMM=   60 NAOKFM=F Big=F
 Integral buffers will be    131072 words long.
 Raffenetti 2 integral format.
 Two-electron integral symmetry is turned on.
 Nuclear repulsion after empirical dispersion term =      686.6381076741 Hartrees.
 One-electron integrals computed using PRISM.
 NBasis=   330 RedAO= T EigKep=  4.09D-05  NBF=   330
 NBsUse=   330 1.00D-06 EigRej= -1.00D+00 NBFU=   330
 ExpMin= 4.38D-02 ExpMax= 8.59D+03 ExpMxC= 1.30D+03 IAcc=3 IRadAn=         5 AccDes= 0.00D+00
 Harris functional with IExCor=  402 and IRadAn=       5 diagonalized for initial guess.
 HarFok:  IExCor=  402 AccDes= 0.00D+00 IRadAn=         5 IDoV= 1 UseB2=F ITyADJ=14
 ICtDFT=  3500011 ScaDFX=  1.000000  1.000000  1.000000  1.000000
 FoFCou: FMM=F IPFlag=           0 FMFlag=      100000 FMFlg1=           0
         NFxFlg=           0 DoJE=T BraDBF=F KetDBF=T FulRan=T
         wScrn=  0.000000 ICntrl=     500 IOpCl=  0 I1Cent=   200000004 NGrid=           0
         NMat0=    1 NMatS0=      1 NMatT0=    0 NMatD0=    1 NMtDS0=    0 NMtDT0=    0
 Petite list used in FoFCou.
 Keep R1 ints in memory in canonical form, NReq=1511981878.
 Requested convergence on RMS density matrix=1.00D-09 within 128 cycles.
 Requested convergence on MAX density matrix=1.00D-07.
 Requested convergence on             energy=1.00D-07.
 No special actions if energy rises.
 EnCoef did     1 forward-backward iterations
 SCF Done:  E(RB3LYP) =  -625.103658911     A.U. after   24 cycles
            NFock= 24  Conv=0.35D-09     -V/T= 2.0063

 **********************************************************************

            Population analysis using the SCF density.

 **********************************************************************

 Orbital symmetries:
       Occupied  (A) (A) (A) (A) (A) (A) (A) (A) (A) (A) (A) (A)
                 (A) (A) (A) (A) (A) (A) (A) (A) (A) (A) (A) (A)
                 (A) (A) (A) (A) (A) (A) (A) (A) (A) (A) (A) (A)
                 (A) (A) (A) (A) (A) (A) (A) (A) (A) (A)
       Virtual   (A) (A) (A) (A) (A) (A) (A) (A) (A) (A) (A) (A)
                 (A) (A) (A) (A) (A) (A) (A) (A) (A) (A) (A) (A)
                 (A) (A) (A) (A) (A) (A) (A) (A) (A) (A) (A) (A)
                 (A) (A) (A) (A) (A) (A) (A) (A) (A) (A) (A) (A)
                 (A) (A) (A) (A) (A) (A) (A) (A) (A) (A) (A) (A)
                 (A) (A) (A) (A) (A) (A) (A) (A) (A) (A) (A) (A)
                 (A) (A) (A) (A) (A) (A) (A) (A) (A) (A) (A) (A)
                 (A) (A) (A) (A) (A) (A) (A) (A) (A) (A) (A) (A)
                 (A) (A) (A) (A) (A) (A) (A) (A) (A) (A) (A) (A)
                 (A) (A) (A) (A) (A) (A) (A) (A) (A) (A) (A) (A)
                 (A) (A) (A) (A) (A) (A) (A) (A) (A) (A) (A) (A)
                 (A) (A) (A) (A) (A) (A) (A) (A) (A) (A) (A) (A)
                 (A) (A) (A) (A) (A) (A) (A) (A) (A) (A) (A) (A)
                 (A) (A) (A) (A) (A) (A) (A) (A) (A) (A) (A) (A)
                 (A) (A) (A) (A) (A) (A) (A) (A) (A) (A) (A) (A)
                 (A) (A) (A) (A) (A) (A) (A) (A) (A) (A) (A) (A)
                 (A) (A) (A) (A) (A) (A) (A) (A) (A) (A) (A) (A)
                 (A) (A) (A) (A) (A) (A) (A) (A) (A) (A) (A) (A)
                 (A) (A) (A) (A) (A) (A) (A) (A) (A) (A) (A) (A)
                 (A) (A) (A) (A) (A) (A) (A) (A) (A) (A) (A) (A)
                 (A) (A) (A) (A) (A) (A) (A) (A) (A) (A) (A) (A)
                 (A) (A) (A) (A) (A) (A) (A) (A) (A) (A) (A) (A)
                 (A) (A) (A) (A) (A) (A) (A) (A) (A) (A) (A) (A)
                 (A) (A) (A) (A) (A) (A) (A) (A)
 The electronic state is 1-A.
 Alpha  occ. eigenvalues --  -19.03676 -19.03662 -19.03577 -14.48131 -14.47754
 Alpha  occ. eigenvalues --  -14.47276 -10.36532 -10.31949 -10.31889 -10.27349
 Alpha  occ. eigenvalues --  -10.27163 -10.22097  -1.13140  -1.03739  -0.98104
 Alpha  occ. eigenvalues --   -0.91908  -0.91842  -0.84625  -0.79961  -0.78166
 Alpha  occ. eigenvalues --   -0.71342  -0.66756  -0.65692  -0.59436  -0.55116
 Alpha  occ. eigenvalues --   -0.53906  -0.52832  -0.52036  -0.50911  -0.50594
 Alpha  occ. eigenvalues --   -0.48919  -0.48756  -0.46052  -0.44359  -0.43810
 Alpha  occ. eigenvalues --   -0.43166  -0.41609  -0.41523  -0.39338  -0.34484
 Alpha  occ. eigenvalues --   -0.30625  -0.22536  -0.22482  -0.20603  -0.20459
 Alpha  occ. eigenvalues --   -0.15531
 Alpha virt. eigenvalues --   -0.12869  -0.08644  -0.03973  -0.02872  -0.01659
 Alpha virt. eigenvalues --   -0.00780  -0.00580   0.00250   0.00465   0.01229
 Alpha virt. eigenvalues --    0.02024   0.02423   0.03220   0.03844   0.04255
 Alpha virt. eigenvalues --    0.04960   0.05949   0.06592   0.06785   0.07692
 Alpha virt. eigenvalues --    0.08063   0.09108   0.09595   0.10335   0.10851
 Alpha virt. eigenvalues --    0.11151   0.12327   0.12534   0.12728   0.13582
 Alpha virt. eigenvalues --    0.13624   0.14418   0.15167   0.16070   0.16473
 Alpha virt. eigenvalues --    0.16938   0.17152   0.17768   0.18117   0.18586
 Alpha virt. eigenvalues --    0.18979   0.19215   0.20128   0.20510   0.21071
 Alpha virt. eigenvalues --    0.21809   0.22418   0.23344   0.23418   0.24171
 Alpha virt. eigenvalues --    0.24894   0.25323   0.25881   0.26864   0.27535
 Alpha virt. eigenvalues --    0.28361   0.29173   0.29892   0.30480   0.31549
 Alpha virt. eigenvalues --    0.33258   0.33849   0.35002   0.35197   0.36232
 Alpha virt. eigenvalues --    0.38688   0.39299   0.40709   0.41679   0.42734
 Alpha virt. eigenvalues --    0.43193   0.44035   0.45585   0.45945   0.46722
 Alpha virt. eigenvalues --    0.47360   0.47795   0.49345   0.49966   0.50880
 Alpha virt. eigenvalues --    0.51408   0.52978   0.53157   0.55986   0.56033
 Alpha virt. eigenvalues --    0.56828   0.57950   0.58211   0.59337   0.59917
 Alpha virt. eigenvalues --    0.61251   0.61878   0.62341   0.63690   0.65219
 Alpha virt. eigenvalues --    0.66137   0.66946   0.68715   0.70478   0.71036
 Alpha virt. eigenvalues --    0.71770   0.72911   0.77965   0.78668   0.80724
 Alpha virt. eigenvalues --    0.83202   0.84783   0.86729   0.89649   0.90535
 Alpha virt. eigenvalues --    0.92043   0.94258   0.96689   0.97451   0.98575
 Alpha virt. eigenvalues --    0.98700   1.00162   1.01248   1.01847   1.04247
 Alpha virt. eigenvalues --    1.08431   1.10998   1.12562   1.16994   1.17216
 Alpha virt. eigenvalues --    1.18586   1.21033   1.22740   1.23614   1.25336
 Alpha virt. eigenvalues --    1.25913   1.26900   1.27638   1.28034   1.29534
 Alpha virt. eigenvalues --    1.29725   1.31546   1.35839   1.36631   1.37742
 Alpha virt. eigenvalues --    1.39641   1.40757   1.42124   1.44823   1.45954
 Alpha virt. eigenvalues --    1.46409   1.47593   1.49407   1.51173   1.51932
 Alpha virt. eigenvalues --    1.53480   1.54935   1.55386   1.57857   1.59564
 Alpha virt. eigenvalues --    1.60825   1.63789   1.65158   1.66159   1.70142
 Alpha virt. eigenvalues --    1.70718   1.71719   1.73022   1.74241   1.75979
 Alpha virt. eigenvalues --    1.76304   1.77623   1.79931   1.81525   1.82513
 Alpha virt. eigenvalues --    1.83035   1.84372   1.87663   1.91096   1.92836
 Alpha virt. eigenvalues --    1.95601   1.98304   1.98699   2.03130   2.04460
 Alpha virt. eigenvalues --    2.05540   2.08732   2.11332   2.14177   2.17062
 Alpha virt. eigenvalues --    2.21519   2.22570   2.25129   2.30229   2.30444
 Alpha virt. eigenvalues --    2.32546   2.34549   2.34910   2.37701   2.38219
 Alpha virt. eigenvalues --    2.40270   2.40765   2.41749   2.43247   2.45458
 Alpha virt. eigenvalues --    2.48104   2.48905   2.49621   2.51701   2.52539
 Alpha virt. eigenvalues --    2.54688   2.57616   2.57716   2.59347   2.60539
 Alpha virt. eigenvalues --    2.64361   2.67419   2.68116   2.69808   2.71134
 Alpha virt. eigenvalues --    2.75016   2.75475   2.77622   2.82598   2.84795
 Alpha virt. eigenvalues --    2.86971   2.90272   2.90780   2.91329   2.91347
 Alpha virt. eigenvalues --    2.91775   2.92155   2.93148   2.93873   2.97296
 Alpha virt. eigenvalues --    3.00960   3.04307   3.08361   3.17519   3.35606
 Alpha virt. eigenvalues --    3.40035   3.40549   3.40591   3.41524   3.41730
 Alpha virt. eigenvalues --    3.45378   3.53449   3.57553   3.58671   3.68179
 Alpha virt. eigenvalues --    3.70828   3.71964   3.75295   3.75417   3.75936
 Alpha virt. eigenvalues --    3.78519   3.80703   3.85541   3.87104   3.95848
 Alpha virt. eigenvalues --    3.96453   4.17892   4.40527   4.53751   4.54418
 Alpha virt. eigenvalues --    4.72886   4.76522   4.85033   5.10590   5.12740
 Alpha virt. eigenvalues --    5.13458   5.18172   5.20743   5.21282   5.46579
 Alpha virt. eigenvalues --    6.22188   6.22568  23.57562  23.61586  23.71049
 Alpha virt. eigenvalues --   23.84535  23.87685  23.93704  35.31474  35.35072
 Alpha virt. eigenvalues --   35.35536  49.95891  50.03586  50.03791
          Condensed to atoms (all electrons):
               1          2          3          4          5          6
     1  C    5.589215   0.242969  -0.165074   0.025868   0.113848   0.010071
     2  N    0.242969   6.505768   0.421198  -0.127662  -0.008366  -0.008138
     3  C   -0.165074   0.421198   5.343026   0.400414  -0.132043   0.354102
     4  N    0.025868  -0.127662   0.400414   6.430453   0.263672  -0.011704
     5  C    0.113848  -0.008366  -0.132043   0.263672   5.574453   0.012087
     6  H    0.010071  -0.008138   0.354102  -0.011704   0.012087   0.443718
     7  H    0.383521  -0.026121   0.005166   0.014246  -0.015010  -0.000076
     8  H   -0.019535   0.014509   0.006107  -0.029185   0.383258  -0.000066
     9  N    0.008793  -0.009003  -0.000337  -0.003066  -0.013296   0.000972
    10  O    0.030869  -0.005184  -0.017249  -0.008122   0.036611   0.000023
    11  O   -0.010834  -0.013754   0.010570   0.028439  -0.002668  -0.000424
    12  O   -0.012003   0.027410   0.015266  -0.013145  -0.012578  -0.000531
    13  C    0.008525  -0.028958  -0.095540   0.216228  -0.094373   0.000595
    14  H    0.001420  -0.002305  -0.005461  -0.032503  -0.007128  -0.000205
    15  H   -0.001930   0.007165   0.014885  -0.033971   0.004252   0.001431
    16  H    0.000567  -0.002502  -0.006738  -0.045935  -0.002744  -0.000035
    17  C   -0.035707   0.070265  -0.081144  -0.056256  -0.003091  -0.004059
    18  C   -0.037186  -0.046787  -0.019446   0.007959   0.008094   0.002145
    19  H    0.008981  -0.013539   0.004206   0.008695  -0.006086   0.001220
    20  H   -0.004434  -0.063857   0.006776  -0.003606   0.008096  -0.000080
    21  H   -0.001470   0.020061   0.000547  -0.000272   0.001391  -0.000050
    22  H    0.006832   0.003007   0.000476   0.001517  -0.003355   0.000021
    23  H    0.000483  -0.022503   0.000375  -0.001399  -0.001268  -0.000410
               7          8          9         10         11         12
     1  C    0.383521  -0.019535   0.008793   0.030869  -0.010834  -0.012003
     2  N   -0.026121   0.014509  -0.009003  -0.005184  -0.013754   0.027410
     3  C    0.005166   0.006107  -0.000337  -0.017249   0.010570   0.015266
     4  N    0.014246  -0.029185  -0.003066  -0.008122   0.028439  -0.013145
     5  C   -0.015010   0.383258  -0.013296   0.036611  -0.002668  -0.012578
     6  H   -0.000076  -0.000066   0.000972   0.000023  -0.000424  -0.000531
     7  H    0.451214  -0.001207   0.000622  -0.000848   0.000045   0.000004
     8  H   -0.001207   0.450691   0.000626  -0.000739  -0.000101   0.000031
     9  N    0.000622   0.000626   7.023265   0.169090   0.163996   0.124831
    10  O   -0.000848  -0.000739   0.169090   8.514227  -0.279250  -0.282021
    11  O    0.000045  -0.000101   0.163996  -0.279250   8.532371  -0.276436
    12  O    0.000004   0.000031   0.124831  -0.282021  -0.276436   8.563944
    13  C    0.001042  -0.000136  -0.005575  -0.002136   0.021776  -0.006846
    14  H    0.000003   0.000231   0.001479  -0.000552   0.000352   0.000102
    15  H    0.000008  -0.000019   0.000427  -0.000015  -0.000404   0.000021
    16  H    0.000007  -0.000278  -0.000248   0.000016   0.000120   0.000006
    17  C   -0.012296   0.001792  -0.011317   0.000578  -0.008816   0.030543
    18  C    0.005053  -0.000525  -0.004069  -0.002509   0.001942   0.007319
    19  H    0.000003   0.000013   0.002031  -0.000114  -0.000076  -0.001335
    20  H    0.001126   0.000001   0.000797  -0.000272   0.000085  -0.000756
    21  H   -0.000009   0.000000  -0.000002   0.000001   0.000000  -0.000001
    22  H   -0.000127   0.000005   0.000019  -0.000002  -0.000001  -0.000002
    23  H    0.000020   0.000001   0.000012   0.000001  -0.000002   0.000004
              13         14         15         16         17         18
     1  C    0.008525   0.001420  -0.001930   0.000567  -0.035707  -0.037186
     2  N   -0.028958  -0.002305   0.007165  -0.002502   0.070265  -0.046787
     3  C   -0.095540  -0.005461   0.014885  -0.006738  -0.081144  -0.019446
     4  N    0.216228  -0.032503  -0.033971  -0.045935  -0.056256   0.007959
     5  C   -0.094373  -0.007128   0.004252  -0.002744  -0.003091   0.008094
     6  H    0.000595  -0.000205   0.001431  -0.000035  -0.004059   0.002145
     7  H    0.001042   0.000003   0.000008   0.000007  -0.012296   0.005053
     8  H   -0.000136   0.000231  -0.000019  -0.000278   0.001792  -0.000525
     9  N   -0.005575   0.001479   0.000427  -0.000248  -0.011317  -0.004069
    10  O   -0.002136  -0.000552  -0.000015   0.000016   0.000578  -0.002509
    11  O    0.021776   0.000352  -0.000404   0.000120  -0.008816   0.001942
    12  O   -0.006846   0.000102   0.000021   0.000006   0.030543   0.007319
    13  C    5.005993   0.417158   0.379095   0.422431  -0.018039   0.000874
    14  H    0.417158   0.442906  -0.013700  -0.033905  -0.000692  -0.000009
    15  H    0.379095  -0.013700   0.502957  -0.027002   0.002588  -0.000356
    16  H    0.422431  -0.033905  -0.027002   0.515479  -0.000286   0.000036
    17  C   -0.018039  -0.000692   0.002588  -0.000286   5.700274  -0.122376
    18  C    0.000874  -0.000009  -0.000356   0.000036  -0.122376   5.517833
    19  H    0.001464   0.000001   0.000012   0.000003   0.388633  -0.090983
    20  H   -0.000068  -0.000002   0.000000  -0.000001   0.451058  -0.038262
    21  H   -0.000031   0.000000   0.000000   0.000000  -0.081652   0.444789
    22  H    0.000169   0.000000   0.000001   0.000000  -0.075330   0.428508
    23  H   -0.000048  -0.000001   0.000000  -0.000001   0.059513   0.350254
              19         20         21         22         23
     1  C    0.008981  -0.004434  -0.001470   0.006832   0.000483
     2  N   -0.013539  -0.063857   0.020061   0.003007  -0.022503
     3  C    0.004206   0.006776   0.000547   0.000476   0.000375
     4  N    0.008695  -0.003606  -0.000272   0.001517  -0.001399
     5  C   -0.006086   0.008096   0.001391  -0.003355  -0.001268
     6  H    0.001220  -0.000080  -0.000050   0.000021  -0.000410
     7  H    0.000003   0.001126  -0.000009  -0.000127   0.000020
     8  H    0.000013   0.000001   0.000000   0.000005   0.000001
     9  N    0.002031   0.000797  -0.000002   0.000019   0.000012
    10  O   -0.000114  -0.000272   0.000001  -0.000002   0.000001
    11  O   -0.000076   0.000085   0.000000  -0.000001  -0.000002
    12  O   -0.001335  -0.000756  -0.000001  -0.000002   0.000004
    13  C    0.001464  -0.000068  -0.000031   0.000169  -0.000048
    14  H    0.000001  -0.000002   0.000000   0.000000  -0.000001
    15  H    0.000012   0.000000   0.000000   0.000001   0.000000
    16  H    0.000003  -0.000001   0.000000   0.000000  -0.000001
    17  C    0.388633   0.451058  -0.081652  -0.075330   0.059513
    18  C   -0.090983  -0.038262   0.444789   0.428508   0.350254
    19  H    0.544723  -0.015340  -0.004673   0.012861  -0.021889
    20  H   -0.015340   0.441620  -0.003325  -0.001769   0.005033
    21  H   -0.004673  -0.003325   0.496562  -0.020304  -0.024437
    22  H    0.012861  -0.001769  -0.020304   0.527623  -0.030901
    23  H   -0.021889   0.005033  -0.024437  -0.030901   0.539814
 Mulliken charges:
               1
     1  C   -0.143790
     2  N    0.066327
     3  C   -0.060082
     4  N   -0.030668
     5  C   -0.103757
     6  H    0.199396
     7  H    0.193612
     8  H    0.194527
     9  N   -0.450049
    10  O   -0.152402
    11  O   -0.166929
    12  O   -0.163826
    13  C   -0.223601
    14  H    0.232811
    15  H    0.164556
    16  H    0.181010
    17  C   -0.194185
    18  C   -0.412297
    19  H    0.181191
    20  H    0.217179
    21  H    0.172878
    22  H    0.150752
    23  H    0.147349
 Sum of Mulliken charges =   0.00000
 Mulliken charges with hydrogens summed into heavy atoms:
               1
     1  C    0.049822
     2  N    0.066327
     3  C    0.139313
     4  N   -0.030668
     5  C    0.090770
     9  N   -0.450049
    10  O   -0.152402
    11  O   -0.166929
    12  O   -0.163826
    13  C    0.354776
    17  C    0.204185
    18  C    0.058681
 Electronic spatial extent (au):  <R**2>=           2762.2560
 Charge=              0.0000 electrons
 Dipole moment (field-independent basis, Debye):
    X=             16.3489    Y=              6.9475    Z=              0.3297  Tot=             17.7669
 Quadrupole moment (field-independent basis, Debye-Ang):
   XX=            -96.9319   YY=            -59.5279   ZZ=            -66.1301
   XY=            -15.8920   XZ=             -3.5252   YZ=             -1.7018
 Traceless Quadrupole moment (field-independent basis, Debye-Ang):
   XX=            -22.7353   YY=             14.6687   ZZ=              8.0666
   XY=            -15.8920   XZ=             -3.5252   YZ=             -1.7018
 Octapole moment (field-independent basis, Debye-Ang**2):
  XXX=             95.0970  YYY=             55.2835  ZZZ=              4.4401  XYY=             22.7643
  XXY=             -4.8222  XXZ=            -10.7251  XZZ=             26.3569  YZZ=             13.6759
  YYZ=             -1.6111  XYZ=             -3.4841
 Hexadecapole moment (field-independent basis, Debye-Ang**3):
 XXXX=          -2240.7631 YYYY=           -981.3379 ZZZZ=           -363.8230 XXXY=            -66.9957
 XXXZ=            -17.8679 YYYX=            -70.0000 YYYZ=            -20.0784 ZZZX=             -4.2150
 ZZZY=             -5.7686 XXYY=           -536.7253 XXZZ=           -451.5134 YYZZ=           -235.4860
 XXYZ=             13.1627 YYXZ=            -12.2663 ZZXY=            -18.5308
 N-N= 6.866381076741D+02 E-N=-2.834249402209D+03  KE= 6.212038333737D+02
 Calling FoFJK, ICntrl=      2127 FMM=F ISym2X=0 I1Cent= 0 IOpClX= 0 NMat=1 NMatS=1 NMatT=0.
 ***** Axes restored to original set *****
 -------------------------------------------------------------------
 Center     Atomic                   Forces (Hartrees/Bohr)
 Number     Number              X              Y              Z
 -------------------------------------------------------------------
      1        6          -0.087226010   -0.089818509    0.000672190
      2        7           0.022823375   -0.134529138   -0.001043544
      3        6           0.139309649   -0.000474249   -0.001593088
      4        7           0.018097071    0.132529529    0.002174188
      5        6          -0.086139452    0.089468795   -0.000000922
      6        1           0.002524606   -0.000865228   -0.002383651
      7        1          -0.002523105   -0.001518727   -0.001881868
      8        1          -0.002579441    0.001468579   -0.001989159
      9        7           0.003253222   -0.000029775   -0.000802660
     10        8          -0.014610504    0.000040349    0.003257222
     11        8           0.005340819    0.010033122    0.004273112
     12        8           0.005388493   -0.010107127    0.004287493
     13        6           0.001775914    0.007876090   -0.001626216
     14        1           0.001612747   -0.001789430   -0.007265798
     15        1          -0.005561063    0.000243546   -0.000657939
     16        1           0.002516851   -0.002989831    0.006314944
     17        6          -0.043824281   -0.024321485   -0.000299832
     18        6           0.035436964    0.015860302    0.014767792
     19        1          -0.000540734   -0.008350335   -0.035660148
     20        1           0.007874397    0.013992994    0.010164659
     21        1          -0.003304297    0.007740284   -0.000244093
     22        1           0.004534664    0.001411994    0.010243619
     23        1          -0.004179884   -0.005871749   -0.000706302
 -------------------------------------------------------------------
 Cartesian Forces:  Max     0.139309649 RMS     0.036909905
 -----------------------------------------------------------------------------------------------
                       Internal Coordinate Forces (Hartree/Bohr or radian)
  Cent   Atom   N1       Length/X         N2         Alpha/Y        N3         Beta/Z          J
 -----------------------------------------------------------------------------------------------
         X 
         X        1   0.000465(     1)
         X        1  -0.000488(     2)      2   0.003690(    27)
         X        1   0.000024(     3)      2  -0.000178(    28)      3  -0.000178(    52)     0
      1  C        2  -0.126252(     4)      1  -0.002109(    29)      3  -0.052010(    53)     0
      2  N        2  -0.133214(     5)      1  -0.003168(    30)      3   0.057996(    54)     0
      3  C        2  -0.142528(     6)      1  -0.013974(    31)      3   0.002434(    55)     0
      4  N        2  -0.134332(     7)      1  -0.000243(    32)      3  -0.061106(    56)     0
      5  C        2  -0.125269(     8)      1  -0.007566(    33)      3   0.052550(    57)     0
      6  H        7  -0.002530(     9)      6   0.001732(    34)      5   0.003954(    58)     0
      7  H        5  -0.002903(    10)      9   0.001015(    35)      8   0.002909(    59)     0
      8  H        9  -0.002913(    11)      5   0.001168(    36)      6  -0.003075(    60)     0
      9  N        2  -0.011015(    12)      3   0.007202(    37)      4   0.000378(    61)     0
     10  O       13  -0.014611(    13)      2  -0.007817(    38)      3  -0.000097(    62)     0
     11  O       13  -0.011359(    14)      2  -0.010255(    39)      3   0.000939(    63)     0
     12  O       13  -0.011447(    15)      2  -0.010290(    40)      3  -0.000929(    64)     0
     13  C        8  -0.003282(    16)      7  -0.002096(    41)      6   0.008827(    65)     0
     14  H       17   0.007367(    17)      8  -0.002704(    42)      7  -0.003084(    66)     0
     15  H       17   0.005540(    18)      8  -0.000648(    43)      7   0.001524(    67)     0
     16  H       17   0.007404(    19)      8  -0.000849(    44)      7   0.000783(    68)     0
     17  C        6   0.001683(    20)      7   0.001350(    45)      8  -0.003993(    69)     0
     18  C       21   0.017221(    21)      6   0.005522(    46)      7   0.097292(    70)     0
     19  H       21   0.012029(    22)      6  -0.023923(    47)      7  -0.063629(    71)     0
     20  H       21   0.004130(    23)      6   0.020594(    48)      7  -0.030411(    72)     0
     21  H       22   0.008378(    24)     21   0.000669(    49)      6   0.001487(    73)     0
     22  H       22   0.010176(    25)     21   0.009953(    50)      6   0.000727(    74)     0
     23  H       22   0.006262(    26)     21  -0.007244(    51)      6   0.001514(    75)     0
 -----------------------------------------------------------------------------------------------
 Internal  Forces:  Max     0.142528448 RMS     0.039688891

 GradGradGradGradGradGradGradGradGradGradGradGradGradGradGradGradGradGrad
 Berny optimization.
 Search for a local minimum.
 Step number   1 out of a maximum of   85
 All quantities printed in internal units (Hartrees-Bohrs-Radians)
 Second derivative matrix not updated -- first step.
 ITU=  0
     Eigenvalues ---    0.00000   0.00000   0.00000   0.00000   0.00000
     Eigenvalues ---    0.00000   0.00000   0.00021   0.00048   0.00060
     Eigenvalues ---    0.00799   0.01199   0.01290   0.01303   0.01357
     Eigenvalues ---    0.03422   0.04581   0.07399   0.11100   0.13265
     Eigenvalues ---    0.13500   0.13685   0.13794   0.13902   0.16711
     Eigenvalues ---    0.18544   0.19847   0.29955   0.30367   0.30831
     Eigenvalues ---    0.32218   0.33663   0.34576   0.35994   0.35994
     Eigenvalues ---    0.35994   0.35994   0.35994   0.35994   0.35994
     Eigenvalues ---    0.35994   0.35994   0.35994   0.35994   0.36964
     Eigenvalues ---    0.36964   0.38095   0.39017   0.39334   0.39396
     Eigenvalues ---    0.40410   0.40482   0.42973   0.47178   0.56761
     Eigenvalues ---    0.57303   0.61870   0.75000   0.75000   0.76264
     Eigenvalues ---    0.76264   0.76264   1.14237   2.22465   2.41285
     Eigenvalues ---    4.46321   4.494581000.000001000.000001000.00000
     Eigenvalues --- 1000.000001000.000001000.000001000.000001000.00000
 RFO step:  Lambda=-1.72715890D-01 EMin=-5.10702591D-15
 Linear search not attempted -- first point.
 Maximum step size (   0.300) exceeded in Quadratic search.
    -- Step size scaled by   0.508
 Variable       Old X    -DE/DX   Delta X   Delta X   Delta X     New X
                                 (Linear)    (Quad)   (Total)
    R4        2.45664  -0.12625   0.00000  -0.14838  -0.14838   2.30826
    R5        2.45664  -0.13321   0.00000  -0.11061  -0.11061   2.34603
    R7        2.45664  -0.13433   0.00000  -0.11163  -0.11163   2.34501
    R8        2.45664  -0.12527   0.00000  -0.14727  -0.14727   2.30938
    R9        2.04090  -0.00253   0.00000  -0.00241  -0.00241   2.03849
   R10        2.04090  -0.00290   0.00000  -0.00277  -0.00277   2.03813
   R11        2.04090  -0.00291   0.00000  -0.00278  -0.00278   2.03812
   R12        7.55890  -0.01102   0.00000  -0.03242  -0.03242   7.52649
   R13        2.39995  -0.01461   0.00000  -0.00794  -0.00794   2.39201
   R14        2.39995  -0.01136   0.00000  -0.00617  -0.00617   2.39378
   R15        2.39995  -0.01145   0.00000  -0.00622  -0.00622   2.39373
   R16        2.75900  -0.00328   0.00000  -0.00308  -0.00308   2.75592
   R17        2.04090   0.00737   0.00000   0.00703   0.00703   2.04793
   R18        2.04090   0.00554   0.00000   0.00529   0.00529   2.04619
   R19        2.04090   0.00740   0.00000   0.00707   0.00707   2.04797
   R20        2.75900   0.00168   0.00000   0.00158   0.00158   2.76058
   R21        2.87238   0.01722   0.00000   0.01838   0.01838   2.89076
   R22        2.04090   0.01203   0.00000   0.01148   0.01148   2.05238
   R23        2.04090   0.00413   0.00000   0.00394   0.00394   2.04485
   R24        2.04090   0.00838   0.00000   0.00799   0.00799   2.04890
   R25        2.04090   0.01018   0.00000   0.00971   0.00971   2.05062
   R26        2.04090   0.00626   0.00000   0.00598   0.00598   2.04688
    A3        1.57080  -0.00211   0.00000  -0.00764  -0.00764   1.56315
    A4        1.57080  -0.00317   0.00000  -0.01752  -0.01752   1.55328
    A5        1.57080  -0.01397   0.00000  -0.02490  -0.02490   1.54590
    A6        1.57080  -0.00024   0.00000  -0.01806  -0.01806   1.55274
    A7        1.57080  -0.00757   0.00000  -0.01152  -0.01152   1.55928
    A8        2.19259   0.00173   0.00000   0.01025   0.01025   2.20284
    A9        2.28231   0.00101   0.00000   0.00434   0.00434   2.28665
   A10        2.28231   0.00117   0.00000   0.00491   0.00491   2.28722
   A12        1.57080  -0.00782   0.00000  -0.01080  -0.01080   1.56000
   A13        1.57080  -0.01026   0.00000  -0.01797  -0.01797   1.55282
   A14        1.57080  -0.01029   0.00000  -0.01808  -0.01808   1.55272
   A15        2.19732  -0.00210   0.00000  -0.01066  -0.01066   2.18666
   A16        1.90970  -0.00270   0.00000  -0.00346  -0.00346   1.90624
   A17        1.90108  -0.00065   0.00000  -0.00106  -0.00106   1.90003
   A18        1.90841  -0.00085   0.00000   0.00022   0.00022   1.90863
   A19        2.19732   0.00135   0.00000  -0.00697  -0.00697   2.19035
   A20        1.95320   0.00552   0.00000   0.00275   0.00275   1.95595
   A21        1.86239  -0.02392   0.00000  -0.01546  -0.01546   1.84693
   A22        1.86389   0.02059   0.00000   0.00378   0.00378   1.86767
   A23        1.90517   0.00067   0.00000   0.00063   0.00063   1.90580
   A24        1.94594   0.00995   0.00000   0.01398   0.01398   1.95992
   A25        1.94068  -0.00724   0.00000  -0.01124  -0.01124   1.92945
    D2        0.62832  -0.05201   0.00000   0.00528   0.00528   0.63360
    D3        1.88496   0.05800   0.00000   0.03553   0.03553   1.92049
    D4        3.14159   0.00243   0.00000  -0.00028  -0.00028   3.14131
    D5        4.39823  -0.06111   0.00000  -0.03685  -0.03685   4.36138
    D6        5.65487   0.05255   0.00000  -0.00652  -0.00652   5.64834
    D7        3.14159   0.00395   0.00000   0.01026   0.01026   3.15185
    D8       -3.14159   0.00291   0.00000   0.00618   0.00618  -3.13541
    D9       -3.14159  -0.00307   0.00000  -0.00834  -0.00834  -3.14993
   D10       -0.95532   0.00038   0.00000   0.00111   0.00111  -0.95421
   D11        0.00000  -0.00010   0.00000  -0.00012  -0.00012  -0.00012
   D12        2.09440   0.00094   0.00000   0.00045   0.00045   2.09484
   D13       -2.09440  -0.00093   0.00000  -0.00058  -0.00058  -2.09498
   D14       -3.14159   0.00883   0.00000   0.01719   0.01719  -3.12440
   D15        2.06427  -0.00308   0.00000  -0.00483  -0.00483   2.05944
   D16       -0.02459   0.00152   0.00000   0.00031   0.00031  -0.02428
   D17       -2.11201   0.00078   0.00000  -0.00116  -0.00116  -2.11317
   D18       -3.14159  -0.00399   0.00000  -0.00754  -0.00754  -3.14913
   D19        1.34739   0.09729   0.00000   0.09600   0.09600   1.44339
   D20       -0.34208  -0.06363   0.00000  -0.05442  -0.05442  -0.39651
   D21       -2.34714  -0.03041   0.00000  -0.03115  -0.03115  -2.37829
   D22       -3.14159   0.00149   0.00000   0.00253   0.00253  -3.13906
   D23        1.06357   0.00073   0.00000  -0.00293  -0.00293   1.06064
   D24       -1.05666   0.00151   0.00000  -0.00233  -0.00233  -1.05898
   A11        0.78540   0.00720   0.00000   0.00000   0.00000   0.78540
    R1        7.55890   0.00046   0.00000   0.00000   0.00000   7.55890
    R2        7.55890  -0.00049   0.00000   0.00000   0.00000   7.55890
    R3        7.55890   0.00002   0.00000   0.00000   0.00000   7.55890
    R6        2.45664  -0.14253   0.00000   0.00000   0.00000   2.45664
    A1        1.57080   0.00369   0.00000   0.00000   0.00000   1.57080
    A2        1.57080  -0.00018   0.00000   0.00000   0.00000   1.57080
    D1        1.57080  -0.00018   0.00000   0.00000   0.00000   1.57080
         Item               Value     Threshold  Converged?
 Maximum Force            0.134332     0.000450     NO 
 RMS     Force            0.038198     0.000300     NO 
 Maximum Displacement     0.148383     0.001800     NO 
 RMS     Displacement     0.034641     0.001200     NO 
 Predicted change in Energy=-7.325273D-02
 GradGradGradGradGradGradGradGradGradGradGradGradGradGradGradGradGradGrad

 ---------------------------------------------------------------------------------------------------
                            Z-MATRIX (ANGSTROMS AND DEGREES)
   CD    Cent   Atom    N1       Length/X        N2       Alpha/Y        N3        Beta/Z          J
 ---------------------------------------------------------------------------------------------------
      1         X 
      2         X        1   4.000000(     1)
      3         X        1   4.000000(     2)      2   90.000(    27)
      4         X        1   4.000000(     3)      2   90.000(    28)      3   90.000(    52)      0
      5      1  C        2   1.221479(     4)      1   89.562(    29)      3   36.303(    53)      0
      6      2  N        2   1.241467(     5)      1   88.996(    30)      3  110.036(    54)      0
      7      3  C        2   1.300000(     6)      1   88.573(    31)      3  179.984(    55)      0
      8      4  N        2   1.240927(     7)      1   88.965(    32)      3  249.889(    56)      0
      9      5  C        2   1.222069(     8)      1   89.340(    33)      3  323.626(    57)      0
     10      6  H        7   1.078722(     9)      6  126.213(    34)      5  180.588(    58)      0
     11      7  H        5   1.078534(    10)      9  131.016(    35)      8 -179.646(    59)      0
     12      8  H        9   1.078529(    11)      5  131.048(    36)      6 -180.478(    60)      0
     13      9  N        2   3.982845(    12)      3   45.000(    37)      4  -54.672(    61)      0
     14     10  O       13   1.265798(    13)      2   89.381(    38)      3   -0.007(    62)      0
     15     11  O       13   1.266733(    14)      2   88.970(    39)      3  120.026(    63)      0
     16     12  O       13   1.266708(    15)      2   88.964(    40)      3 -120.033(    64)      0
     17     13  C        8   1.458372(    16)      7  125.286(    41)      6 -179.015(    65)      0
     18     14  H       17   1.083720(    17)      8  109.220(    42)      7  117.997(    66)      0
     19     15  H       17   1.082798(    18)      8  108.863(    43)      7   -1.391(    67)      0
     20     16  H       17   1.083739(    19)      8  109.357(    44)      7 -121.076(    68)      0
     21     17  C        6   1.460835(    20)      7  125.498(    45)      8 -180.432(    69)      0
     22     18  C       21   1.529724(    21)      6  112.067(    46)      7   82.700(    70)      0
     23     19  H       21   1.086074(    22)      6  105.821(    47)      7  -22.718(    71)      0
     24     20  H       21   1.082086(    23)      6  107.010(    48)      7 -136.266(    72)      0
     25     21  H       22   1.084231(    24)     21  109.194(    49)      6 -179.855(    73)      0
     26     22  H       22   1.085139(    25)     21  112.295(    50)      6   60.770(    74)      0
     27     23  H       22   1.083162(    26)     21  110.549(    51)      6  -60.675(    75)      0
 ---------------------------------------------------------------------------------------------------
                         Z-Matrix orientation:                         
 ---------------------------------------------------------------------
 Center     Atomic      Atomic             Coordinates (Angstroms)
 Number     Number       Type             X           Y           Z
 ---------------------------------------------------------------------
      1         -1           0        0.000000    0.000000    0.000000
      2         -1           0        0.000000    0.000000    4.000000
      3         -1           0        4.000000    0.000000    0.000000
      4         -1           0        0.000000   -4.000000    0.000000
      5          6           0        0.984360    0.723159    3.990666
      6          7           0       -0.425274    1.166151    3.978252
      7          6           0       -1.299597    0.000367    3.967636
      8          7           0       -0.426618   -1.165073    3.977589
      9          6           0        0.983902   -0.724702    3.985921
     10          1           0       -2.378079    0.012744    3.948545
     11          1           0        1.798372    1.430704    3.991928
     12          1           0        1.797059   -1.433221    3.984816
     13          7           0        0.000001   -0.003117    0.017156
     14          8           0        1.265725   -0.001961    0.030826
     15          8           0       -0.632897   -1.100156    0.040783
     16          8           0       -0.634744    1.092859    0.039195
     17          6           0       -0.873871   -2.552925    3.951478
     18          1           0       -0.503156   -3.030346    3.051985
     19          1           0       -1.956499   -2.571850    3.948518
     20          1           0       -0.504224   -3.066060    4.831559
     21          6           0       -0.867582    2.558348    3.964466
     22          6           0       -1.238268    3.057469    5.362151
     23          1           0       -1.868511    2.546876    3.543078
     24          1           0       -0.238247    3.083451    3.257987
     25          1           0       -1.561040    4.090537    5.297772
     26          1           0       -0.399859    3.016179    6.049823
     27          1           0       -2.050700    2.470261    5.772497
 ---------------------------------------------------------------------
                    Distance matrix (angstroms):
                    1          2          3          4          5
     1  X    0.000000
     2  X    4.000000   0.000000
     3  X    4.000000   5.656854   0.000000
     4  X    4.000000   5.656854   5.656854   0.000000
     5  C    4.173409   1.221479   5.053955   6.261199   0.000000
     6  N    4.167404   1.241467   6.063782   6.534253   1.477656
     7  C    4.175055   1.300000   6.620262   5.782216   2.395709
     8  N    4.166607   1.240927   6.064120   4.903064   2.357212
     9  C    4.169031   1.222069   5.050703   5.251971   1.447868
    10  H    4.609385   2.378670   7.501404   6.111332   3.436927
    11  H    4.606142   2.298069   4.778030   6.975828   1.078534
    12  H    4.600250   2.298646   4.773450   5.069175   2.304449
    13  N    0.017437   3.982845   4.000037   3.996920   4.157550
    14  O    1.266102   4.166102   2.734449   4.193724   4.035505
    15  O    1.269868   4.157680   4.761905   2.968386   4.641291
    16  O    1.264427   4.157549   4.762008   5.132411   4.286292
    17  C    4.784899   2.698783   6.773937   4.297890   3.766601
    18  H    4.330216   3.214793   6.227040   3.241605   4.145193
    19  H    5.102264   3.231865   7.595070   4.632310   4.416731
    20  H    5.744470   3.216591   7.282357   4.946762   4.157062
    21  C    4.797378   2.701686   6.779048   7.712433   2.607354
    22  C    6.295561   3.568877   8.095693   8.949516   3.502864
    23  H    4.746716   3.191659   7.312961   7.675045   3.415429
    24  H    4.492094   3.180411   6.171295   7.800417   2.757275
    25  H    6.872825   4.566569   8.701957   9.795919   4.418917
    26  H    6.771822   3.668650   8.065758   9.272918   3.378481
    27  H    6.605247   3.667330   8.719798   8.910184   3.929234
                    6          7          8          9         10
     6  N    0.000000
     7  C    1.457260   0.000000
     8  N    2.331225   1.456173   0.000000
     9  C    2.358211   2.395918   1.477688   0.000000
    10  H    2.268189   1.078722   2.279539   3.442113   0.000000
    11  H    2.239370   3.412311   3.418895   2.304164   4.410809
    12  H    3.419875   3.412440   2.239797   1.078529   4.418587
    13  N    4.151906   4.158757   4.149358   4.152088   4.594708
    14  O    4.450409   4.698868   4.449022   4.030453   5.350332
    15  O    4.547848   4.132289   3.942742   4.280084   4.422083
    16  O    3.945303   4.131370   4.544504   4.636828   4.414622
    17  C    3.746129   2.588590   1.458372   2.606704   2.974106
    18  H    4.298212   3.264652   2.083710   2.898202   3.685045
    19  H    4.039578   2.654842   2.078558   3.472652   2.618751
    20  H    4.318099   3.283588   2.085435   2.900272   3.710806
    21  C    1.460835   2.594208   3.749464   3.769200   2.960060
    22  C    2.480569   3.360701   4.517261   4.597485   3.545110
    23  H    2.044189   2.643601   4.005798   4.362979   2.616466
    24  H    2.056647   3.336986   4.313150   4.065164   3.805916
    25  H    3.403400   4.308957   5.536355   5.602161   4.372227
    26  H    2.777527   3.773613   4.666662   4.490955   4.165254
    27  H    2.749914   3.149930   4.367493   4.754835   3.077884
                   11         12         13         14         15
    11  H    0.000000
    12  H    2.863934   0.000000
    13  N    4.592253   4.584423   0.000000
    14  O    4.245772   4.238497   1.265798   0.000000
    15  O    5.284683   4.644460   1.266733   2.193376   0.000000
    16  O    4.653846   5.278509   1.266708   2.193281   2.193016
    17  C    4.797063   2.896327   4.769073   5.143617   4.178773
    18  H    5.107004   2.951605   4.315955   4.628980   3.579079
    19  H    5.488295   3.922625   5.087424   5.686420   4.380434
    20  H    5.121309   2.946021   5.728380   5.963930   5.180046
    21  C    2.894762   4.799307   4.784878   5.155551   5.369825
    22  C    3.707433   5.592545   6.282473   6.637253   6.780065
    23  H    3.859188   5.428877   4.735602   5.353123   5.205157
    24  H    2.723611   5.007102   4.481813   4.711291   5.292326
    25  H    4.479463   6.596407   6.861469   7.244299   7.445850
    26  H    3.403069   5.374743   6.757892   6.936258   7.287461
    27  H    4.366515   5.765260   6.591428   7.076535   6.900043
                   16         17         18         19         20
    16  O    0.000000
    17  C    5.353025   0.000000
    18  H    5.108330   1.083720   0.000000
    19  H    5.519052   1.082798   1.768105   0.000000
    20  H    6.346683   1.083739   1.779933   1.770059   0.000000
    21  C    4.196382   5.111293   5.674410   5.244514   5.702442
    22  C    5.705944   5.796490   6.552767   5.848372   6.190150
    23  H    3.989178   5.211916   5.762879   5.135512   5.918320
    24  H    3.805297   5.714339   6.123000   5.950769   6.353216
    25  H    6.123457   6.813244   7.541197   6.809132   7.249213
    26  H    6.315218   5.970146   6.749679   6.169658   6.203925
    27  H    6.064068   5.471146   6.328725   5.362711   5.824758
                   21         22         23         24         25
    21  C    0.000000
    22  C    1.529724   0.000000
    23  H    1.086074   1.991718   0.000000
    24  H    1.082086   2.329856   1.739813   0.000000
    25  H    2.146204   1.084231   2.357197   2.631488   0.000000
    26  H    2.185655   1.085139   2.942950   2.797319   1.751618
    27  H    2.162522   1.083162   2.238163   3.159707   1.757960
                   26         27
    26  H    0.000000
    27  H    1.760741   0.000000
 Stoichiometry    C6H11N3O3
 Framework group  C1[X(C6H11N3O3)]
 Deg. of freedom    63
 Full point group                 C1      NOp   1
 Largest Abelian subgroup         C1      NOp   1
 Largest concise Abelian subgroup C1      NOp   1
                         Standard orientation:                         
 ---------------------------------------------------------------------
 Center     Atomic      Atomic             Coordinates (Angstroms)
 Number     Number       Type             X           Y           Z
 ---------------------------------------------------------------------
      1          6           0        1.065505    0.114368    1.475378
      2          7           0        1.461378   -0.324754    0.121154
      3          6           0        1.122689    0.713734   -0.843439
      4          7           0        0.519799    1.798226   -0.081310
      5          6           0        0.476752    1.431115    1.349403
      6          1           0        1.285086    0.671236   -1.909020
      7          1           0        1.220527   -0.511917    2.339653
      8          1           0        0.058064    2.093589    2.090384
      9          7           0       -2.646268   -0.883639   -0.109533
     10          8           0       -2.838395   -0.851646    1.141191
     11          8           0       -2.965452    0.111581   -0.825264
     12          8           0       -2.081182   -1.886514   -0.638179
     13          6           0        0.008364    3.041833   -0.645868
     14          1           0       -1.054340    3.113858   -0.446066
     15          1           0        0.173319    3.034406   -1.716001
     16          1           0        0.533812    3.880039   -0.203368
     17          6           0        2.082648   -1.608031   -0.197063
     18          6           0        3.602700   -1.494426   -0.325865
     19          1           0        1.860618   -1.792986   -1.243988
     20          1           0        1.556630   -2.363932    0.371117
     21          1           0        4.014070   -2.468878   -0.564140
     22          1           0        4.069510   -1.155152    0.593106
     23          1           0        3.866635   -0.808014   -1.121112
 ---------------------------------------------------------------------
 Rotational constants (GHZ):      1.0043190      0.5675019      0.4398021
 Standard basis: 6-311+G(d,p) (5D, 7F)
 There are   342 symmetry adapted cartesian basis functions of A   symmetry.
 There are   330 symmetry adapted basis functions of A   symmetry.
   330 basis functions,   520 primitive gaussians,   342 cartesian basis functions
    46 alpha electrons       46 beta electrons
       nuclear repulsion energy       698.3338054557 Hartrees.
 NAtoms=   23 NActive=   23 NUniq=   23 SFac= 1.00D+00 NAtFMM=   60 NAOKFM=F Big=F
 Integral buffers will be    131072 words long.
 Raffenetti 2 integral format.
 Two-electron integral symmetry is turned on.
 Nuclear repulsion after empirical dispersion term =      698.3009789016 Hartrees.
 One-electron integrals computed using PRISM.
 NBasis=   330 RedAO= T EigKep=  2.81D-05  NBF=   330
 NBsUse=   330 1.00D-06 EigRej= -1.00D+00 NBFU=   330
 Initial guess from the checkpoint file:  "emimNO3_s1.chk"
 B after Tr=     0.000000    0.000000    0.000000
         Rot=    0.999997   -0.001762   -0.001430    0.000932 Ang=  -0.28 deg.
 ExpMin= 4.38D-02 ExpMax= 8.59D+03 ExpMxC= 1.30D+03 IAcc=2 IRadAn=         4 AccDes= 0.00D+00
 Harris functional with IExCor=  402 and IRadAn=       4 diagonalized for initial guess.
 HarFok:  IExCor=  402 AccDes= 0.00D+00 IRadAn=         4 IDoV= 1 UseB2=F ITyADJ=14
 ICtDFT=  3500011 ScaDFX=  1.000000  1.000000  1.000000  1.000000
 FoFCou: FMM=F IPFlag=           0 FMFlag=      100000 FMFlg1=           0
         NFxFlg=           0 DoJE=T BraDBF=F KetDBF=T FulRan=T
         wScrn=  0.000000 ICntrl=     500 IOpCl=  0 I1Cent=   200000004 NGrid=           0
         NMat0=    1 NMatS0=      1 NMatT0=    0 NMatD0=    1 NMtDS0=    0 NMtDT0=    0
 Petite list used in FoFCou.
 Keep R1 ints in memory in canonical form, NReq=1511981878.
 Requested convergence on RMS density matrix=1.00D-09 within 128 cycles.
 Requested convergence on MAX density matrix=1.00D-07.
 Requested convergence on             energy=1.00D-07.
 No special actions if energy rises.
 SCF Done:  E(RB3LYP) =  -625.179584057     A.U. after   16 cycles
            NFock= 16  Conv=0.66D-09     -V/T= 2.0056
 Calling FoFJK, ICntrl=      2127 FMM=F ISym2X=0 I1Cent= 0 IOpClX= 0 NMat=1 NMatS=1 NMatT=0.
 ***** Axes restored to original set *****
 -------------------------------------------------------------------
 Center     Atomic                   Forces (Hartrees/Bohr)
 Number     Number              X              Y              Z
 -------------------------------------------------------------------
      1        6          -0.067336520   -0.061156457   -0.000590680
      2        7           0.013284660   -0.094242565   -0.000970617
      3        6           0.122091417    0.000956043   -0.000198968
      4        7           0.007066100    0.092495458    0.001002787
      5        6          -0.066228197    0.060921572    0.000251639
      6        1           0.002370017   -0.001230758   -0.002040481
      7        1          -0.002377903   -0.000720108   -0.001692978
      8        1          -0.002454715    0.000620314   -0.001786359
      9        7           0.003085796    0.000306930    0.009830530
     10        8          -0.010150508   -0.000049224   -0.000222135
     11        8           0.003089912    0.005864218    0.001133800
     12        8           0.003198418   -0.006196858    0.001002267
     13        6           0.001166720    0.003472723   -0.001836722
     14        1           0.000747715   -0.001167167   -0.004614892
     15        1          -0.003481319   -0.000207204   -0.000630559
     16        1           0.001361495   -0.002261068    0.003798697
     17        6          -0.036707695   -0.014833212    0.002785876
     18        6           0.025243424    0.009549877    0.001643494
     19        1           0.001677126   -0.003369018   -0.019703050
     20        1           0.006556014    0.010119275    0.008265749
     21        1          -0.002388399    0.004796858   -0.000367741
     22        1           0.003488317    0.000391758    0.004853483
     23        1          -0.003301877   -0.004061388    0.000086858
 -------------------------------------------------------------------
 Cartesian Forces:  Max     0.122091417 RMS     0.027549093
 -----------------------------------------------------------------------------------------------
                       Internal Coordinate Forces (Hartree/Bohr or radian)
  Cent   Atom   N1       Length/X         N2         Alpha/Y        N3         Beta/Z          J
 -----------------------------------------------------------------------------------------------
         X 
         X        1   0.000569(     1)
         X        1  -0.000614(     2)      2   0.004640(    27)
         X        1   0.000045(     3)      2  -0.000337(    28)      3  -0.000337(    52)     0
      1  C        2  -0.092717(     4)      1  -0.006205(    29)      3  -0.019969(    53)     0
      2  N        2  -0.087951(     5)      1  -0.007901(    30)      3   0.057602(    54)     0
      3  C        2  -0.125284(     6)      1  -0.017035(    31)      3   0.001638(    55)     0
      4  N        2  -0.088823(     7)      1  -0.007475(    32)      3  -0.059627(    56)     0
      5  C        2  -0.091845(     8)      1  -0.008315(    33)      3   0.020235(    57)     0
      6  H        7  -0.002348(     9)      6   0.002437(    34)      5   0.003433(    58)     0
      7  H        5  -0.002269(    10)      9   0.002060(    35)      8   0.002605(    59)     0
[...]
    25  H    2.147632   1.091964   2.526447   2.510136   0.000000
    26  H    2.179858   1.093108   3.099136   2.544450   1.770048
    27  H    2.168959   1.092392   2.529717   3.084602   1.766428
                   26         27
    26  H    0.000000
    27  H    1.774239   0.000000
 Stoichiometry    C6H11N3O3
 Framework group  C1[X(C6H11N3O3)]
 Deg. of freedom    63
 Full point group                 C1      NOp   1
 Largest Abelian subgroup         C1      NOp   1
 Largest concise Abelian subgroup C1      NOp   1
                         Standard orientation:                         
 ---------------------------------------------------------------------
 Center     Atomic      Atomic             Coordinates (Angstroms)
 Number     Number       Type             X           Y           Z
 ---------------------------------------------------------------------
      1          6           0        1.181777    1.375206    1.091786
      2          7           0        1.088086    0.349678    0.168708
      3          6           0        0.061780    0.597514   -0.647094
      4          7           0       -0.507622    1.746722   -0.273919
      5          6           0        0.174899    2.247732    0.820982
      6          1           0       -0.305296   -0.092223   -1.395024
      7          1           0        1.938338    1.386795    1.856011
      8          1           0       -0.122383    3.157430    1.311649
      9          7           0       -1.355960   -1.670054    0.160621
     10          8           0       -2.220963   -0.753079    0.111452
     11          8           0       -0.812360   -2.053988   -0.923659
     12          8           0       -0.989296   -2.148383    1.247500
     13          6           0       -1.808108    2.206474   -0.765254
     14          1           0       -2.587345    1.635271   -0.260913
     15          1           0       -1.867966    2.025411   -1.836575
     16          1           0       -1.901097    3.273119   -0.568649
     17          6           0        1.948218   -0.850752    0.105974
     18          6           0        3.181564   -0.619427   -0.757749
     19          1           0        1.317435   -1.657239   -0.271804
     20          1           0        2.210896   -1.092056    1.135716
     21          1           0        3.791651   -1.525032   -0.765475
     22          1           0        3.794588    0.202084   -0.378002
     23          1           0        2.899823   -0.394869   -1.789019
 ---------------------------------------------------------------------
 Rotational constants (GHZ):      0.9941231      0.9136754      0.5842538

 **********************************************************************

            Population analysis using the SCF density.

 **********************************************************************

 Orbital symmetries:
       Occupied  (A) (A) (A) (A) (A) (A) (A) (A) (A) (A) (A) (A)
                 (A) (A) (A) (A) (A) (A) (A) (A) (A) (A) (A) (A)
                 (A) (A) (A) (A) (A) (A) (A) (A) (A) (A) (A) (A)
                 (A) (A) (A) (A) (A) (A) (A) (A) (A) (A)
       Virtual   (A) (A) (A) (A) (A) (A) (A) (A) (A) (A) (A) (A)
                 (A) (A) (A) (A) (A) (A) (A) (A) (A) (A) (A) (A)
                 (A) (A) (A) (A) (A) (A) (A) (A) (A) (A) (A) (A)
                 (A) (A) (A) (A) (A) (A) (A) (A) (A) (A) (A) (A)
                 (A) (A) (A) (A) (A) (A) (A) (A) (A) (A) (A) (A)
                 (A) (A) (A) (A) (A) (A) (A) (A) (A) (A) (A) (A)
                 (A) (A) (A) (A) (A) (A) (A) (A) (A) (A) (A) (A)
                 (A) (A) (A) (A) (A) (A) (A) (A) (A) (A) (A) (A)
                 (A) (A) (A) (A) (A) (A) (A) (A) (A) (A) (A) (A)
                 (A) (A) (A) (A) (A) (A) (A) (A) (A) (A) (A) (A)
                 (A) (A) (A) (A) (A) (A) (A) (A) (A) (A) (A) (A)
                 (A) (A) (A) (A) (A) (A) (A) (A) (A) (A) (A) (A)
                 (A) (A) (A) (A) (A) (A) (A) (A) (A) (A) (A) (A)
                 (A) (A) (A) (A) (A) (A) (A) (A) (A) (A) (A) (A)
                 (A) (A) (A) (A) (A) (A) (A) (A) (A) (A) (A) (A)
                 (A) (A) (A) (A) (A) (A) (A) (A) (A) (A) (A) (A)
                 (A) (A) (A) (A) (A) (A) (A) (A) (A) (A) (A) (A)
                 (A) (A) (A) (A) (A) (A) (A) (A) (A) (A) (A) (A)
                 (A) (A) (A) (A) (A) (A) (A) (A) (A) (A) (A) (A)
                 (A) (A) (A) (A) (A) (A) (A) (A) (A) (A) (A) (A)
                 (A) (A) (A) (A) (A) (A) (A) (A) (A) (A) (A) (A)
                 (A) (A) (A) (A) (A) (A) (A) (A) (A) (A) (A) (A)
                 (A) (A) (A) (A) (A) (A) (A) (A) (A) (A) (A) (A)
                 (A) (A) (A) (A) (A) (A) (A) (A)
 The electronic state is 1-A.
 Alpha  occ. eigenvalues --  -19.08499 -19.08375 -19.08269 -14.52106 -14.43517
 Alpha  occ. eigenvalues --  -14.43231 -10.29245 -10.26095 -10.25968 -10.24632
 Alpha  occ. eigenvalues --  -10.24139 -10.19549  -1.19263  -1.10575  -0.98777
 Alpha  occ. eigenvalues --   -0.98102  -0.96986  -0.84041  -0.80817  -0.76472
 Alpha  occ. eigenvalues --   -0.69484  -0.66932  -0.64338  -0.58562  -0.55851
 Alpha  occ. eigenvalues --   -0.53740  -0.51824  -0.50981  -0.50286  -0.49565
 Alpha  occ. eigenvalues --   -0.48312  -0.47359  -0.46858  -0.46431  -0.46213
 Alpha  occ. eigenvalues --   -0.44643  -0.42190  -0.41027  -0.38690  -0.33888
 Alpha  occ. eigenvalues --   -0.30348  -0.27698  -0.27193  -0.25728  -0.25334
 Alpha  occ. eigenvalues --   -0.20446
 Alpha virt. eigenvalues --   -0.04987  -0.03084  -0.01982  -0.00854   0.00083
 Alpha virt. eigenvalues --    0.00377   0.01811   0.02267   0.02937   0.03216
 Alpha virt. eigenvalues --    0.04045   0.04794   0.05405   0.06179   0.06849
 Alpha virt. eigenvalues --    0.07647   0.08195   0.08531   0.09325   0.09940
 Alpha virt. eigenvalues --    0.11023   0.11235   0.12743   0.13294   0.13546
 Alpha virt. eigenvalues --    0.14234   0.14493   0.15106   0.15239   0.16230
 Alpha virt. eigenvalues --    0.16254   0.16889   0.17259   0.17607   0.17778
 Alpha virt. eigenvalues --    0.18219   0.19058   0.19563   0.19838   0.20924
 Alpha virt. eigenvalues --    0.21216   0.21609   0.21966   0.22311   0.23499
 Alpha virt. eigenvalues --    0.24503   0.24818   0.25335   0.25734   0.26105
 Alpha virt. eigenvalues --    0.27136   0.27528   0.28952   0.29869   0.30922
 Alpha virt. eigenvalues --    0.31713   0.32475   0.33117   0.33563   0.34530
 Alpha virt. eigenvalues --    0.35761   0.37151   0.37504   0.38643   0.39307
 Alpha virt. eigenvalues --    0.39973   0.40471   0.41107   0.41426   0.42129
 Alpha virt. eigenvalues --    0.42863   0.44088   0.45219   0.46710   0.46880
 Alpha virt. eigenvalues --    0.47815   0.48390   0.50687   0.51959   0.52560
 Alpha virt. eigenvalues --    0.54212   0.55734   0.56875   0.58476   0.58578
 Alpha virt. eigenvalues --    0.61064   0.61571   0.63177   0.63648   0.64239
 Alpha virt. eigenvalues --    0.65612   0.66367   0.66911   0.67466   0.69048
 Alpha virt. eigenvalues --    0.70513   0.70824   0.72899   0.73281   0.74050
 Alpha virt. eigenvalues --    0.76510   0.77223   0.80222   0.82053   0.82726
 Alpha virt. eigenvalues --    0.86579   0.88517   0.90594   0.91605   0.94149
 Alpha virt. eigenvalues --    0.95439   0.96034   0.98110   0.98942   1.00182
 Alpha virt. eigenvalues --    1.01087   1.03024   1.03647   1.05866   1.08122
 Alpha virt. eigenvalues --    1.11477   1.13621   1.15711   1.16826   1.17781
 Alpha virt. eigenvalues --    1.19832   1.21332   1.21762   1.24357   1.25427
 Alpha virt. eigenvalues --    1.26933   1.27954   1.30665   1.31269   1.33744
 Alpha virt. eigenvalues --    1.36024   1.37703   1.41208   1.44206   1.44675
 Alpha virt. eigenvalues --    1.46397   1.48534   1.50604   1.52308   1.52440
 Alpha virt. eigenvalues --    1.53141   1.55033   1.56613   1.57565   1.59250
 Alpha virt. eigenvalues --    1.60328   1.61643   1.62806   1.65058   1.66323
 Alpha virt. eigenvalues --    1.67009   1.69128   1.69957   1.72168   1.72978
 Alpha virt. eigenvalues --    1.74045   1.75281   1.76845   1.77348   1.78120
 Alpha virt. eigenvalues --    1.79466   1.80212   1.80967   1.81569   1.84490
 Alpha virt. eigenvalues --    1.87987   1.91965   1.94635   2.00519   2.02482
 Alpha virt. eigenvalues --    2.03198   2.07093   2.08312   2.10345   2.10960
 Alpha virt. eigenvalues --    2.12881   2.18405   2.20514   2.24000   2.26018
 Alpha virt. eigenvalues --    2.26759   2.29112   2.30105   2.33058   2.35824
 Alpha virt. eigenvalues --    2.37456   2.40690   2.43334   2.43776   2.44205
 Alpha virt. eigenvalues --    2.46062   2.47792   2.51314   2.53424   2.54144
 Alpha virt. eigenvalues --    2.55679   2.56261   2.57059   2.58721   2.59010
 Alpha virt. eigenvalues --    2.62558   2.64329   2.65713   2.67202   2.69800
 Alpha virt. eigenvalues --    2.72164   2.73836   2.75703   2.77073   2.79859
 Alpha virt. eigenvalues --    2.81974   2.83448   2.86189   2.86796   2.88498
 Alpha virt. eigenvalues --    2.88809   2.89232   2.90757   2.92896   2.94737
 Alpha virt. eigenvalues --    2.95744   2.97377   2.99337   3.01444   3.07681
 Alpha virt. eigenvalues --    3.11791   3.18790   3.27119   3.36312   3.37112
 Alpha virt. eigenvalues --    3.39902   3.40422   3.43868   3.53865   3.56968
 Alpha virt. eigenvalues --    3.60739   3.66911   3.68948   3.71587   3.74171
 Alpha virt. eigenvalues --    3.75058   3.77195   3.78411   3.78709   3.80113
 Alpha virt. eigenvalues --    3.82385   3.86870   3.91043   3.93868   3.99833
 Alpha virt. eigenvalues --    4.07508   4.21522   4.52611   4.55319   4.69675
 Alpha virt. eigenvalues --    4.90225   4.92342   5.08103   5.11214   5.15189
 Alpha virt. eigenvalues --    5.19730   5.20340   5.22381   5.24542   5.47784
 Alpha virt. eigenvalues --    6.19314   6.23283  23.72406  23.85221  23.88882
 Alpha virt. eigenvalues --   23.90410  23.95142  24.14562  35.36346  35.44304
 Alpha virt. eigenvalues --   35.57832  49.92459  50.00385  50.01874
          Condensed to atoms (all electrons):
               1          2          3          4          5          6
     1  C    5.796975   0.159340  -0.518114   0.160442   0.064167   0.001464
     2  N    0.159340   6.728770   0.280219  -0.266221   0.132514  -0.024133
     3  C   -0.518114   0.280219   7.673861  -0.294203  -0.385206   0.390506
     4  N    0.160442  -0.266221  -0.294203   6.877514   0.263427  -0.031910
     5  C    0.064167   0.132514  -0.385206   0.263427   5.651251   0.008844
     6  H    0.001464  -0.024133   0.390506  -0.031910   0.008844   0.390679
     7  H    0.458568  -0.061704   0.006251   0.029216  -0.052636   0.000013
     8  H   -0.039544   0.021172   0.004404  -0.060489   0.447864  -0.000013
     9  N    0.106211   0.017154  -0.745664   0.094395   0.079641   0.006351
    10  O   -0.076742  -0.020998   0.341396  -0.114129  -0.015888  -0.006372
    11  O    0.022954  -0.057824  -0.002480   0.087242  -0.018544   0.016929
    12  O   -0.007857   0.031386   0.102499  -0.041151  -0.023028   0.005300
    13  C    0.031068  -0.019259  -0.222275   0.282058  -0.120517  -0.005678
    14  H   -0.005075   0.001849  -0.042613  -0.010506  -0.000546   0.000029
    15  H   -0.001695   0.005052  -0.013082  -0.023089   0.009693   0.000213
    16  H    0.027011  -0.008696   0.039624  -0.061483  -0.029991   0.000103
    17  C   -0.087916   0.070169  -0.017266   0.009183  -0.028332  -0.005921
    18  C   -0.028389  -0.066484  -0.030669   0.010830   0.006905   0.005247
    19  H    0.005152  -0.036869  -0.007173   0.006908  -0.009289  -0.002420
    20  H    0.009390  -0.034280  -0.010408  -0.007655   0.016290   0.000483
    21  H   -0.001488   0.020742  -0.000325  -0.000321   0.002091  -0.000085
    22  H    0.006764  -0.016313  -0.004457   0.001814  -0.010953  -0.000034
    23  H    0.001513  -0.002065   0.001991  -0.003794   0.001330   0.000679
               7          8          9         10         11         12
     1  C    0.458568  -0.039544   0.106211  -0.076742   0.022954  -0.007857
     2  N   -0.061704   0.021172   0.017154  -0.020998  -0.057824   0.031386
     3  C    0.006251   0.004404  -0.745664   0.341396  -0.002480   0.102499
     4  N    0.029216  -0.060489   0.094395  -0.114129   0.087242  -0.041151
     5  C   -0.052636   0.447864   0.079641  -0.015888  -0.018544  -0.023028
     6  H    0.000013  -0.000013   0.006351  -0.006372   0.016929   0.005300
     7  H    0.483682  -0.002600   0.000578  -0.000040  -0.000053  -0.000023
     8  H   -0.002600   0.485173   0.000479  -0.000156   0.000062  -0.000045
     9  N    0.000578   0.000479   8.116164  -0.262492  -0.083679   0.079778
    10  O   -0.000040  -0.000156  -0.262492   8.685241  -0.248801  -0.177944
    11  O   -0.000053   0.000062  -0.083679  -0.248801   8.688196  -0.254994
    12  O   -0.000023  -0.000045   0.079778  -0.177944  -0.254994   8.311567
    13  C    0.001612  -0.011594  -0.031013   0.020242   0.029513  -0.005927
    14  H    0.000001  -0.000119   0.006611  -0.002646  -0.000188  -0.000543
    15  H    0.000012   0.000134   0.005600  -0.004829  -0.000774  -0.000152
    16  H    0.000026   0.000452  -0.002054   0.002181   0.000048   0.000085
    17  C   -0.026315   0.001700  -0.009367   0.011223  -0.005986   0.013348
    18  C    0.007902  -0.000605  -0.003581  -0.005180  -0.016027   0.035689
    19  H    0.000061   0.000011   0.027137   0.001490   0.006275  -0.012408
    20  H    0.000228   0.000003  -0.003099   0.001379   0.001202  -0.002434
    21  H   -0.000093  -0.000001   0.000739  -0.000016  -0.000153  -0.000055
    22  H   -0.000128   0.000003   0.000692  -0.000020  -0.000469  -0.000066
    23  H   -0.000010   0.000002  -0.000637   0.000150  -0.000018   0.000037
              13         14         15         16         17         18
     1  C    0.031068  -0.005075  -0.001695   0.027011  -0.087916  -0.028389
     2  N   -0.019259   0.001849   0.005052  -0.008696   0.070169  -0.066484
     3  C   -0.222275  -0.042613  -0.013082   0.039624  -0.017266  -0.030669
     4  N    0.282058  -0.010506  -0.023089  -0.061483   0.009183   0.010830
     5  C   -0.120517  -0.000546   0.009693  -0.029991  -0.028332   0.006905
     6  H   -0.005678   0.000029   0.000213   0.000103  -0.005921   0.005247
     7  H    0.001612   0.000001   0.000012   0.000026  -0.026315   0.007902
     8  H   -0.011594  -0.000119   0.000134   0.000452   0.001700  -0.000605
     9  N   -0.031013   0.006611   0.005600  -0.002054  -0.009367  -0.003581
    10  O    0.020242  -0.002646  -0.004829   0.002181   0.011223  -0.005180
    11  O    0.029513  -0.000188  -0.000774   0.000048  -0.005986  -0.016027
    12  O   -0.005927  -0.000543  -0.000152   0.000085   0.013348   0.035689
    13  C    5.079795   0.437824   0.393077   0.387397   0.003398  -0.002673
    14  H    0.437824   0.417397  -0.023102  -0.024197  -0.000702   0.000231
    15  H    0.393077  -0.023102   0.501804  -0.021623   0.002178  -0.000378
    16  H    0.387397  -0.024197  -0.021623   0.542791  -0.000159  -0.000040
    17  C    0.003398  -0.000702   0.002178  -0.000159   5.588214  -0.106301
    18  C   -0.002673   0.000231  -0.000378  -0.000040  -0.106301   5.537331
    19  H   -0.000219   0.000006   0.000001   0.000005   0.443102  -0.049369
    20  H    0.000230  -0.000007   0.000000  -0.000005   0.434855  -0.069965
    21  H   -0.000035   0.000000   0.000000   0.000000  -0.083521   0.445320
    22  H   -0.000155   0.000001   0.000002   0.000000   0.020751   0.379917
    23  H   -0.000057  -0.000002   0.000001  -0.000002  -0.023500   0.394105
              19         20         21         22         23
     1  C    0.005152   0.009390  -0.001488   0.006764   0.001513
     2  N   -0.036869  -0.034280   0.020742  -0.016313  -0.002065
     3  C   -0.007173  -0.010408  -0.000325  -0.004457   0.001991
     4  N    0.006908  -0.007655  -0.000321   0.001814  -0.003794
     5  C   -0.009289   0.016290   0.002091  -0.010953   0.001330
     6  H   -0.002420   0.000483  -0.000085  -0.000034   0.000679
     7  H    0.000061   0.000228  -0.000093  -0.000128  -0.000010
     8  H    0.000011   0.000003  -0.000001   0.000003   0.000002
     9  N    0.027137  -0.003099   0.000739   0.000692  -0.000637
    10  O    0.001490   0.001379  -0.000016  -0.000020   0.000150
    11  O    0.006275   0.001202  -0.000153  -0.000469  -0.000018
    12  O   -0.012408  -0.002434  -0.000055  -0.000066   0.000037
    13  C   -0.000219   0.000230  -0.000035  -0.000155  -0.000057
    14  H    0.000006  -0.000007   0.000000   0.000001  -0.000002
    15  H    0.000001   0.000000   0.000000   0.000002   0.000001
    16  H    0.000005  -0.000005   0.000000   0.000000  -0.000002
    17  C    0.443102   0.434855  -0.083521   0.020751  -0.023500
    18  C   -0.049369  -0.069965   0.445320   0.379917   0.394105
    19  H    0.392520  -0.021095  -0.004527   0.004600  -0.005032
    20  H   -0.021095   0.515308  -0.003354  -0.009185   0.007119
    21  H   -0.004527  -0.003354   0.504595  -0.024437  -0.021306
    22  H    0.004600  -0.009185  -0.024437   0.543852  -0.033026
    23  H   -0.005032   0.007119  -0.021306  -0.033026   0.532749
 Mulliken charges:
               1
     1  C   -0.084197
     2  N    0.146478
     3  C   -0.546817
     4  N    0.091920
     5  C    0.010916
     6  H    0.249726
     7  H    0.155452
     8  H    0.153705
     9  N   -0.399942
    10  O   -0.127048
    11  O   -0.162433
    12  O   -0.053061
    13  C   -0.246812
    14  H    0.246297
    15  H    0.170957
    16  H    0.148526
    17  C   -0.202836
    18  C   -0.443815
    19  H    0.261133
    20  H    0.174999
    21  H    0.166233
    22  H    0.140847
    23  H    0.149773
 Sum of Mulliken charges =   0.00000
 Mulliken charges with hydrogens summed into heavy atoms:
               1
     1  C    0.071255
     2  N    0.146478
     3  C   -0.297091
     4  N    0.091920
     5  C    0.164621
     9  N   -0.399942
    10  O   -0.127048
    11  O   -0.162433
    12  O   -0.053061
    13  C    0.318968
    17  C    0.233295
    18  C    0.013038
 Electronic spatial extent (au):  <R**2>=           2082.1287
 Charge=              0.0000 electrons
 Dipole moment (field-independent basis, Debye):
    X=              5.8190    Y=              9.2025    Z=             -0.8642  Tot=             10.9221
 Quadrupole moment (field-independent basis, Debye-Ang):
   XX=            -69.5701   YY=            -73.0102   ZZ=            -72.1202
   XY=            -13.1816   XZ=              5.4136   YZ=              2.8770
 Traceless Quadrupole moment (field-independent basis, Debye-Ang):
   XX=              1.9967   YY=             -1.4433   ZZ=             -0.5534
   XY=            -13.1816   XZ=              5.4136   YZ=              2.8770
 Octapole moment (field-independent basis, Debye-Ang**2):
  XXX=             17.3044  YYY=             45.2875  ZZZ=             -3.1930  XYY=             -5.9483
  XXY=              6.2778  XXZ=             -0.6186  XZZ=              6.5686  YZZ=             15.4117
  YYZ=              4.8740  XYZ=              5.6371
 Hexadecapole moment (field-independent basis, Debye-Ang**3):
 XXXX=          -1230.1393 YYYY=          -1123.8407 ZZZZ=           -327.9710 XXXY=            -38.7010
 XXXZ=             19.4420 YYYX=            -52.8195 YYYZ=             24.9400 ZZZX=             20.6216
 ZZZY=              4.8088 XXYY=           -367.7033 XXZZ=           -255.8478 YYZZ=           -254.8539
 XXYZ=              1.1207 YYXZ=             12.5029 ZZXY=            -10.0270
 N-N= 7.617771555859D+02 E-N=-2.985791343513D+03  KE= 6.229316674373D+02


 THE PROBLEM WITH THE LADDER OF SUCCESS IS YOU CAN'T
 CLIMB IT WHILE YOU'RE TWIDDLING YOUR THUMBS.
 Error termination request processed by link 9999.
 Error termination via Lnk1e in /apps/gaussian/g09_d01/g09/l9999.exe at Thu Sep 17 22:32:18 2020.
 Job cpu time:       3 days  0 hours 22 minutes 50.2 seconds.
 File lengths (MBytes):  RWF=     56 Int=      0 D2E=      0 Chk=      8 Scr=      1
